ITEM: TIMESTEP
100
ITEM: NUMBER OF ATOMS
1000
ITEM: BOX BOUNDS pp pp pp
-5.5000000000000000e+00 5.5000000000000000e+00
-5.5000000000000000e+00 5.5000000000000000e+00
-5.5000000000000000e+00 5.5000000000000000e+00
ITEM: ATOMS fx fy fz
   -4.52826502059293    0.152094010045246    -6.33588159255049
   -13.3023807987866    -5.60358714231699    -7.03451996901196
   -3.25891807168613     0.84046681803838    -8.59431908811095
   -7.56808729502364     -11.668013961675    -4.12206890855245
   -10.9659688123295    -13.3864775894367    -2.24105670373619
    3.31211877441075    -6.10729013765146    -5.72731352346379
   -2.22912208456607    -13.5091741364986     1.90405091484579
   -6.14004533809699    -5.21708673590074  0.00350487906257084
   -9.74464366448314    -7.46395539105785    -2.41630025408387
   -2.05937069460946    -6.56591103022892    -9.76955478524843
    -6.4680762681298    0.762535323709583    -8.71344982303015
   -5.11547115834473    -2.26231966498012    -5.87474995433785
   -1.80312156650926    -9.05215023769994    -12.0083936149192
   -4.94974124086477    -7.96834512275881    -11.0825665062746
   -2.31073714189632    -7.46349004067188    -12.1970447240468
   -6.21082251591443    -4.53782812655624    -8.90320295708207
   -12.3963354410626     -9.9451582767417    -9.10049527834318
   -7.42478486507681    -9.61061853666611    -6.82879939579829
   -1.24774394434111    -2.08987466222171    -6.37273740297577
   -10.6538710449926     1.37825069403018    -4.30934023991399
   -4.56885908827658    -4.61582908811642    -12.3294672856875
   -3.91965549305797    -9.65021455863473    -5.14100655858386
   -10.9006211332896    -18.6636123355086    -3.78197121429624
   -1.48326867879116    -5.53539517170623    -3.02012410954481
   -2.77437814860581   -0.286808129810647    -3.81365121029622
    -3.5413224279987    -0.55274969182127    -4.80538810247001
   -16.7958818942958   -0.843187193655387    -15.1737255376799
   -6.01599957599951    -4.98429448615893     -1.5884565928543
    3.38097214501401    -5.54835078660953    -3.48871750946406
    4.32542081563381     -6.4752239510629    -4.18987412412786
  -0.922085522072373    -4.12429858512477    -2.47632121009002
    2.69699720946387    -12.4106696688171     1.42174676088998
   -2.61685101086655    -10.8247129803513    -1.72126809433274
   -9.30070496013992    -7.94185440526758    -5.53324775749991
   -2.27194113026804    -10.5727694234474   -0.827888099459094
   0.166525010472219    -5.48011614706727    -4.02580038275888
   -12.4232028147684   -0.838066908831856    -5.26039943939513
     9.3163368034101    -6.47124823113154    -6.17951851726803
    2.47672873400244    -18.3298447623908    -1.94452957288398
   -10.6664769808103     1.34117369177083    -15.8716247484824
    3.55860752925108    -2.53309238024106     -14.013202785591
   0.877155078081705    -5.31416211633535    -11.1897905575958
    8.06670365856164    -1.69828174880002    -12.5784782812802
   -6.55703790149715    -10.8728878082219    -9.30622310054966
    5.77355102100156    -9.92158478654152    -6.97809258708285
   -10.7481132792646    -3.23704601231629    -19.0119673608576
    9.56551450601096    -13.1243284039208    -10.7639817575185
    4.57098862272393    -4.04449010686394    -7.33553886373334
  -0.744446674937635    -6.82564455104265     1.53705778012537
   -5.76199881194554    -11.4945039920797    -16.8487715970714
   -5.62955549672319    -8.84736215792439    -11.1777651109722
   -11.1036476778657    -1.75977887754978    -9.30769610079698
    6.44851978960057    -5.48557836458451     3.19628630502742
   -5.91331919796158    -6.01596123962446    -3.55377519156699
    9.23672960358681    -1.87777169305618    -4.03098965264291
   -5.34711519834481    -10.5222461932086    -3.41885249097895
  -0.162555291897729    -9.31759077474062    -6.90516114150684
   -9.34551355303626    -7.10547034519476   -0.717413267107535
    5.83414165397028    -12.6613240092373     1.85341762287143
     12.370904921701      -5.280958303052    -5.85559695790956
   -4.22002621432867     -8.2839343910328    -7.04239445317368
      3.141555415423    -12.3305536249448     5.94179851483842
    5.68990109446404    0.183885528952334    -2.34374262958146
    6.11268903287038    -1.67719357985692    -4.92903270047503
    4.59377507410719    -4.05982560818838    -2.57956791593109
    5.47136567195057    -5.47136851788988    -3.51456252587891
    9.58248984116105     -7.2625961070566    -8.66225494414771
    12.7222428142275    -13.2297825213019   -0.154103306415812
    3.85932346456442     -10.966927565279    -4.67415424013008
    9.60548287772638    -8.87411687367359    -4.56636147005734
    7.86417034987545    -6.77214454927017    -1.93278045727007
    3.63462192358209    -11.7477254535373    -2.75817528074194
     7.0743319213675   -0.469343762409358    -9.68340422264753
    4.61492790378741    -6.47659542191859    -8.50680679956156
    6.02174022644971    -6.40223224823495    -8.10035879574874
     2.2206307847029    -7.87258775104941    -10.1508709889238
    11.2697989944497    -9.13022375920718     -18.093486283083
    3.83889310916703    -11.9300210523667    -5.51881402515984
    4.26941973358739    -4.88346687008023    -12.8185775976998
    12.8848143645861  -0.0654184516709372    -11.7513076416646
    1.91812127011928     -1.9931981737895     -19.408641626902
   -5.83079888202834     2.46357408233136    -11.3861357642169
    14.9900904299046    -5.99141643156207    -2.33786956160899
    2.99974230261301   -0.413327003544616    -8.02317178235003
     6.2417248848493    -12.7914367428013  -0.0527834800582546
    8.82957970481837    -11.6544147008961    -0.58021302767455
    1.45840547924501    -10.1155075413293    -6.71992242147291
   -5.48051394158735    -2.66523099843695   0.0848990670713756
    13.6045512241851    -4.72728597623588     9.47513922081303
    4.05469192113646    -1.77332974530593     8.72862014398328
   -2.42133677577833     5.01460748317125    -7.26678644462561
   -6.12588445216462     4.73977631545947    -5.84345935423244
   -5.25483282492201    -2.49950486638691    -2.98958880078215
   -3.10565490856782    -13.9140515468932     -1.1554755755096
   -13.9006819324299   -0.945592124505361    -2.50896623854154
  -0.740716529757988     7.58942634794803    -1.03929895227753
   -1.27637691542993     16.3794159484909     -7.1142613139062
   -10.4812233765869    -4.94285681166007    -5.14041328631489
   -9.94780680243045    -4.33739925455748    -5.55656349912105
   -4.81699022612173    -6.44866316538652    -1.29988703489093
   -4.33431946581936   -0.328445951534522    -1.72068822375689
   -11.7911289184808     3.79739055676296   -0.900482970808579
  -0.173327643512132     1.50743415451783    -8.12203406501476
   -14.4844780206561     9.33418455686471    -8.23589949938823
    3.13079680426016    -12.3075287250851    -9.14115255469081
   -4.25912287541972    -3.98750288907643    -13.5549665106527
   -14.0969637587206    -6.42213649544965    -14.9222752312225
   -4.00619339810471    0.963076910237535    -6.76277340191566
   -4.83394978291449    -1.70575163509246    -8.53858146400133
   -4.58017547672823     13.9065115799497    -6.45296622248323
    2.05380708736284   -0.932991410672829    -5.33653694492834
   -5.57856924097737    -1.31793345048895    -11.2927168678413
   -16.8002462818488    -11.7507208980741    -10.4528362702791
    2.70276470226463    -3.72074515980643    -8.15692886380221
   0.821454636990716    -3.82208144864551    -5.95230945774254
   -5.72545577107811    -13.7773927913726     -3.9815527162715
   -17.2493638962241    -0.83990102956765    -4.88723402677732
   -6.65641775769472    -6.52634471329132    -1.59259106357816
   -13.6394011184745     8.46446167045737    -3.33637289350705
   -13.1856973115912    -1.64437778687791    -4.88624173076654
  -0.605069242345988     5.11089159163643    -15.3616122343851
    -4.1187198193455     2.24545975367024    -3.41458982670735
   -1.19378753016521     2.97049973087951    -1.91639258205195
   -4.09357278297121     1.66960621520609    -1.11885808218621
   -8.33810846686171    -11.0270823224662    -9.22680247299801
   -6.59453292633868     4.23305753401119    -8.31265290029876
   -1.25790176798916    -4.66609063850493    -3.04765316649262
    8.91523688974127    -5.14847565196417    -7.64116329044726
   -10.8099020825597     8.77097984183618   -0.166742148197038
    13.7130669132047     6.60600120591477    -5.48412235307087
   -14.5386016090796     4.36815486004484     1.54508168983125
    15.7194892899634     11.5260862789897    -4.18542332146686
   -9.06914511267427     -3.3549617159727    -6.25135091014007
    5.64811711903783     4.21818424931282    -2.64808892780455
    6.92982956449335    -4.21085710719127    -6.33983364520097
   -1.36903088101533    -8.09028311113049    -4.79299029464705
    4.33834964948058     4.00631997579428     1.27476686033756
   -7.32719269139638     2.13115161082549    -7.73285890434463
     7.4646488605786     2.70446611664223    -4.77579517288334
   -4.98982026454488     9.36754691466182    -1.03403742096625
    4.80040185128198    -3.31538099332261    -4.64188287447597
   0.736528520734449    -3.46036507422002     1.03399845961104
   -15.7644842346084     4.08596659587307    -4.97647523923793
    12.2610448205371    -5.01266965211726    -5.15681186381212
    5.93382755805492     8.80740593988908    -6.73047646923636
     3.6046133381694     5.04108244975694    -7.41808154370405
   -2.93331547369732  -0.0748181297790015    -8.26425053810013
   -3.08158949181895     1.78934158779353    -8.59045637922055
    4.22770228232596     -2.9393687010274    -7.61438452140402
   -16.7694371915228     2.45545171639034    0.386587823307414
   -4.32201057524126     9.19569287088182    -9.38257827329411
    7.43511242689118     1.61165084229737    -12.8385473997882
   -1.51363901652986    -3.91850683192465    -4.33455439281224
    6.70420381533094     4.00774063864495    -10.8534436347805
   -2.64170532379239    -1.07839654657685    -8.56616301641078
   -1.41022398408863     1.81873016470827    -7.19357897547515
      0.485509993566     2.56985950889573    -8.57359573053435
    1.62243794577828    -14.0889031874957    -4.16003978462293
    10.6606758938217    -7.27414025656338    -19.9987157054802
   -9.99637003541972    -1.45234506501995    -9.33581682223422
    9.31065365835043     5.06896102948369    -5.49121861509756
    4.44251437040704    -1.43476375907172    -3.81592494570064
  -0.895484142189351     2.23274861312545    -11.5967018125326
  -0.729420664454949    -2.51792346583377    -6.49018265330767
   -6.45791738537043     2.50590175457767     -4.2787870705844
   -1.85420229762067    -2.04216941634968    -13.3558120964836
   -8.39741414832716     -13.568481416221    -3.46653821848496
    13.3630408905546    -1.98953248164407    -6.24903152387949
   -5.71254726856664    -6.54470271397365    0.963363819353104
    14.3898015435968     11.4993191489551    -15.8154177084911
   -3.05990509509231     1.44007995948405    -5.84538216969114
   -7.03891703020608     5.14001341453881   -0.287938876236557
  -0.197318131468467     3.66520242505274    -7.34838262239789
   0.656134055798895     -4.6671357519789    -5.94377340043967
    -8.1275601082222     6.73581052858169    0.419181213323673
    16.8206143970211    -6.06371404055291    -5.02727503251439
    2.56081838111947     9.07592940641361    0.745966980679686
    3.36122576651206    -0.30866781756247     -7.7442452135613
    10.5407158626439     7.05226699796696   -0.650973946668528
    4.69667801720889    -1.73114335741101    -6.80959728734225
    10.9440633613184     4.23987588386722     2.37567118157606
    7.86138372615267     3.23826716900162    -2.82682118810316
    3.82819891614594     6.63707236851799    0.394276380738797
    6.90502710997894     0.24244894670262    -2.86761031175305
    8.17400344851359    0.773492233386636    -1.63359798997879
    2.40028504984413     3.43250055150178     -2.4389013785364
    5.78270765628524    -5.25454040055058    -6.68733105955114
    8.37797799541961     1.57095271014736    -11.7351807088677
    7.09735910116367    0.922489933239567    -8.10170203521942
    11.7053956887733    -2.16679057283414    -13.9148509111165
   -0.85488975240467     -3.6314719959888    -8.59105679880924
    2.08536274151031    -4.50206487728768    -15.2810278131264
   0.115028029842441     5.87630914322803    -1.51768403188698
     8.9811239037768     3.85709400672296    -11.9786496876618
    8.76855162548324     1.70911668255083    -7.97042420509199
    4.26281809590468    -1.07192745616692     -10.666170822722
    6.50721417400115    -3.64585775035047    -11.0814919909306
    2.43954066962989    -3.59343351169549    -9.21290490133051
  -0.339153091771969     3.44441009804327     2.09274090734745
    4.81996785801707    -2.51225434800653    -4.80179097855567
   -1.18331941657179    -6.96851088863598      -9.249659827621
     2.0271077109573     4.42694187923821    -13.8435925121191
    11.5537925264661   0.0558739804135333    -4.00483230056136
    1.30823647447906      6.8223510131699    -9.23600178597173
   -1.09100477926576  0.00583249424849612    -3.70403431545146
    13.9435281732842    -1.82735386565257     -5.9535548789877
    6.95888834023632    -1.54916320041484    0.254090528417377
     2.5473068762161   -0.902653066323106    -5.01014744886047
    6.66405934123839     2.62555480196394    -9.28550245514101
  -0.958314682642809     2.93257843267018    -5.73101843464558
   -3.65651184024107      13.158922111946    -2.62796522799929
   -10.6822487402085     1.15062001466054    -1.91493526201009
   -4.80729629774529      5.0725601077532   -0.917073485731619
    -4.9565206494496     9.00496238139077    -5.86836418828086
   -12.0720999457007     14.5316467722886    -3.22171400544995
   -10.4609844853159     7.70028127351129    -1.40473466493037
    -6.6690009600368     1.80359378322928    -3.55125903623063
   -9.01951979933364     3.32796009901383    -5.43672825785542
   0.810585747567824     8.11126849703166    -5.41176916024039
   -3.00368590221576    -1.56785275149268    -8.76347114310016
    -8.6300154539985     17.9787542491841    -13.6043325131432
   -4.06714108423953     5.53412882459203    -13.9595321642363
   0.161499450514035     14.1679036592228    -10.4181933380042
   -5.93977807211368     5.81300976507204     -10.604852131601
   -4.75913500524604     1.07786545425041    -6.71801174082683
   -3.38494711354397      6.1594768015745    -10.2765599608986
   -12.2507196655592      8.5653422062427    -10.8638698115376
   -12.6124776075203     3.61154924006626    -5.54220963981674
   -2.65015548930586      4.4592499005363    -4.11792093909182
   -6.80416433316964     8.40412291003612   0.0351085411472183
   -13.0018862019602     15.9860705105041    -9.17705881787113
   -3.52177204926687     11.0905590490514    -1.89553124970627
    -7.0571621439218     1.58566220421853    0.129547239551286
   -10.2474859790557     14.8343848268409    -8.27486579369453
   -5.46714231924631     2.04454635930508     2.59272762187715
   -9.07559529348957     1.61666188475504    -1.97049540637462
    1.09153840658644     5.86900823168496   -0.290054304851478
    -5.4800379360277    -4.23114000355125     1.55989706855643
    4.54677793771979   -0.622088777450677    -8.22678599898578
   -2.51721570931095     4.85469070547594    -4.14194890408426
    6.10414135324916     -2.4668656516285    -7.31855630954419
    7.60980133983533     11.7606355446609    -8.08094815177071
    6.78109209190308     12.1295740925905     -1.0977453023846
   -5.84079827671213     9.63470599169963    -1.48325480696685
   -4.91597521141445     8.85958161709261  -0.0727116191728511
   -7.03899389434116     4.01142269315255    -2.85167678894607
    8.76874854399041     4.46310050725401    -2.48359767031297
   -11.4783530957021     2.45286808517174    -5.95155200144354
     12.482715783924     5.15673023196428    -4.29032037177733
   -2.69674535722371     8.75057208094553    -7.87866478352875
   0.976102820875266     8.49679291638796    -16.6392871337217
   -1.80527960311615     1.95676468803516    -12.2337208390388
   0.652567122286274     12.6272609113601     -14.774669935503
  -0.335237866802554     10.2594287014744    -11.7920725628424
  -0.936142064765891     7.22429269565183    -5.67692883031725
   0.582640213246965     12.7577618690042    -6.98340005735619
    2.30240594437394     7.10616224550207    -7.32805845166691
    -1.2351295586154      5.7242629725111    -9.18024874683016
     4.6220821445135    0.541772502953132    -10.5375383038537
   -0.84313536322114     2.42448957487763     -9.9082181060375
    5.83738706021954     9.16471723241174    -11.0160637436535
    8.47469307718496      2.6110253531791    0.225113269521035
  -0.821224915280048     5.84255275162747   -0.784687706828249
   -1.87650999149018    -3.44931822874386    0.183568761085207
   -5.32563838244365      4.5984818392322    -5.03326843857869
    7.05062173605352     3.58358302334221    -7.35605942795955
   -9.44466063226475      12.182677825315     -9.1672618661158
    3.44112394186843     9.77626445562674    -4.36421294092952
   -3.42768801577807     8.00182465526738   -0.712843060066154
   -7.00443135888939    -4.68707542390663    -2.21614459719289
    11.1938664648254     1.89243537378254   -0.738520441947231
   -4.01773356517831     2.49489007529197    -3.81476748305465
     6.0880724419957        6.55706864722    -5.95249093528192
    6.51774339787622     9.24270343957918    -1.35677712026097
    7.71237170508957     3.30650599918369    -2.19689519969697
    2.87763860376543    -1.06203705769744    -7.36148623609633
    4.92303277564817     9.64856835177936    -2.67257444695584
    12.9940092766268     4.73570295994943     -5.1683957841638
     3.6411494558864     10.3889887714113    -3.60161469169471
   -3.87778269983487     4.41889776997723    -4.35360228439831
    12.5350354626751     3.35478403773284    -2.52494624056427
    4.86531413898418     4.58547326858937    -3.75007656592267
    8.54250417352656     5.95561927757995    -14.1669796512274
    8.70144177729034     1.94977513315171    -13.2679441595712
  -0.783401717166294     11.2268157394859    -7.06137905430554
    4.11812965372164     4.19613845942678    -12.7915563619184
     11.270108041437     9.29047198216402    -10.4064562857219
    2.98401106401316     8.75044280410069    -13.7518771845827
    1.69371089454894     2.62224788531999    -6.50662056978672
     7.6036928232706     3.36746226173862    -7.54498266389296
    2.24786554676321    0.682936497578675    -8.66085734367493
    13.9565277490919     4.19675659605996     8.64020759592279
    11.5882461984318     2.85430586525953     1.16936877372433
    5.31907463530921    -1.36163491705501    -1.76336624645829
   0.284982338995431     12.8508293216632     -8.6887303256037
    13.3648505459942     15.9695684837465    -8.02653240594401
    3.91703504783661     13.5081741006585   -0.169875705897995
    5.29814214762334     3.85084989409081    -14.3001079620905
     5.6182602163295     6.15390203978335    -2.15133115684122
     5.7204618820583      4.5522083725856    -6.97985841783292
   -2.23615346563081    -4.91866425141943    0.531732824538917
   -5.87298572005738    -2.37728758667424    -2.32610718796059
   -13.7841765960689     -3.5645633417344      13.998543845618
   -4.42812362037438    -10.5648380553133   -0.604002912701739
   -13.7968897447797     -10.116131079984     5.14496394504098
    7.00848063390345    -5.44300971656061   -0.878222243170281
   -4.09613749731558    -3.94726558252084    -2.60559061513455
   -12.9078670564595    -2.92956784604803    0.146568333084847
    3.99985860001977    -2.45316460235672      8.2440950570305
   -4.20969449524606    -3.90369805542017    0.717249711787446
   -11.5659538629373     2.07753894770927     6.23975583815367
    2.86879856695431    -4.30741318604049    -5.08964750956262
   -1.80236062399996    -12.8889758693414    -5.57439034461357
   -5.81421311220979    -8.23963224129339    -2.05621453128056
   -4.26786664918652    -8.59452276640471   -0.913239110967802
   -3.37240853283864    -0.72778141216065    0.967918011988849
   -10.4980957280965    -4.17457638940349    -3.40134316676906
   -3.09982554844046    -3.64804661363731    -16.9197473447605
   -4.05649960716806    -6.74378085181227     6.40495120725864
   -11.8624385497142    -2.71482523530683    -4.66855221201431
   -3.64588527840937    -2.75917774848531     7.87289308837641
   -3.71470600619519    -4.36324933911638     3.61791399056233
   -6.98130353538255    -3.86050745926732     5.17812799163103
   -2.73872417665091    -11.0637437302543   -0.420155301666329
    0.34675666391358    -4.71650708038434     6.27994576471641
   -9.09881021057746    -9.16545433880417     5.68733103050475
   -3.31611449631936    0.189508507790374     9.62877572322625
   -1.45407643600215    -7.84595801458837    -3.54223290737639
   -4.26955004478414   -0.926771747971472    0.854894597380704
   -7.12793717892452    -2.80699699164671    -8.29205938860397
  -0.406115905538949    -9.18909641599036     -7.7007832753085
   -6.50161393180323    -14.6722083407088    -2.13573913275114
   -5.67786826226658    -11.1254439478086      1.6416608374164
   -4.17453819723549    -4.80052543407262    -2.44994410404994
   -11.8404002480945    -4.29749518456853      -14.64000085933
   -8.92202340330491     3.90329675895721    -2.69871014080519
    6.37666708175881    -0.25239769673258    -5.44182566779228
   -11.2097983035987    -3.08311040496402   -0.689345627851323
    9.85127971667136    -2.52482815814115    -1.60986871101558
   -4.79634764149489     -7.5529125941725      2.1846623197702
   -5.38957011505183    -11.2737025427068    -2.79408488913856
    7.79851377854221    -5.68981434672209    -4.47939401649643
   -5.28156879859006    -4.35081809891126    -7.38109658031212
     5.7311058269278    -10.4962440949846    -7.00032557278256
   -3.20548296164297    -1.95608162718227    -2.38716405719107
     3.4681468486416    -4.95494719878109     8.40168127377985
    -13.896310530689    -7.48166967386252    -3.13333722433268
    7.65046679520286    -12.9364107458544    -7.88577584870736
   -8.73785496714614    -1.48956716821923     4.87852374888561
    2.69891011355899    -4.38642486557394     1.55432217936907
   0.395334762654883    -5.91020317935082  -0.0231525760418556
  -0.952418169421097   -0.975443500731549    -7.95985356660298
   -5.30675616425733    -6.23857835183335     3.13778162984584
   -3.30853351427049    -13.7412996041254    -4.04427000813412
   0.487698760007791    -11.1292032880826     1.82581361650876
    4.35380027114561   -0.124080874495967     8.11408779197549
   -5.21408242983963    -11.7443199295348    -5.38348711922308
   -7.25574089630365  -0.0489504096660821    -10.6024174758369
    4.14542608916612     0.70994961128041     3.23988506473112
   -5.17897492260281    -2.54723052509671     4.98620532664969
   -1.58413877605319    -2.47175661254915     7.34527721665577
   -5.93998827627516    -4.12359820004893     -10.009495068531
    4.79571950589769    -4.78957544230414     5.16513703272402
   -2.78246026881697    -4.93512611181754     12.8520899945346
   -1.54061983476521    -12.4126148496743    -2.31574268392892
   -6.34502629455186    -1.96185695813833     6.19113012504591
    6.77947310105689    -14.7769826117401     1.43814414999604
    1.62787016935379    -14.0117312380379    -4.24809336141178
    3.63191388744543    -3.11904872842345    0.127974663080479
   -3.60178312290624    -6.52254624900605     5.38248304713863
    2.94301313363322   -0.152478516871724    -5.05181283753872
   -3.59568994996389    -3.75851313084754    -1.78611642835286
  -0.139865791847491    -3.23736724973297    -5.15725828586961
    0.26205726625238    -5.94327754260127     8.28008709896723
   -7.04670762078625    -5.79849505500444     3.35342362860967
    13.1559703341744    -4.42131692452821    -9.96188495512069
   -7.90294079427691      -4.191547823223     12.0723577556729
   -3.74746394268596    -1.41027201060995    -2.16871125747969
   -5.77613070596394    -15.1388468703325    -6.02553221345879
     8.1317726141698     -5.6750662200514     6.62762963138573
   -6.55944403395763    -4.68223017640031    -5.53934970677714
   -6.49789813269132    -4.30111501249419    -9.89440086440929
    5.01158221196065    -5.41020110327366     6.48440838345159
   0.217753558629226    -11.2384971161426   -0.707670302308315
    10.2680662107356    -4.61682104184145     9.26246307560544
    6.68465460551293   -0.149827646249343    -15.6550682167388
    3.97064573601123    -3.28379611381449     -3.4818384361632
  -0.894405379473556    -11.7579925164603    -6.91279959759616
    15.1850922932174    -6.59492797177745    -12.7492684598867
    6.58439184936976    -9.33876718636217    0.990740174000059
  -0.241823640254936    -3.84169898461321    -9.64256424245749
    15.0752687957043    0.951490586828122    -5.03165584781594
    1.04196343430972    -8.05599137144957    -10.1817277227702
    14.4311396319366    -2.82910054283686    -6.24007754875843
    5.22068713685279    -6.20197093135776     12.2453761836472
    4.81444818872865    -2.37500763524626   -0.246340267569717
     7.6636321503715    -11.0460418885336     5.78992005590085
    5.99884273676284    -17.1999323640748     13.3930985220194
   0.939716139551386    -10.0735601274084    -7.66982196618233
    6.68027437579319    -3.89448636352525    -4.37791326631155
    5.17144601806277    -2.37756882077172    0.197358440418287
    1.57927690556998    -1.16708400620108     1.88935201721827
    5.43395233010259   -0.373922504841108     9.54780748435306
    7.46328663192563   -0.024065356929049    -17.3806705299413
    3.79676565060976   -0.400075071440448    -2.71828593864975
    7.30239685101534     -8.6793190575159    -4.51405386335002
    12.4086498751299     -10.147466032252    0.618303545870109
    7.80728588121833    -15.2055512577763     4.80573657678747
    4.35117636281333    -11.8140838263767     4.74762696902289
    14.3637312072452    -7.15248965100006    -4.33260979227283
    2.67625951527144     4.41424794250218     7.51169959424591
    1.96539928712759    0.169096995927991    -4.95713602149605
    11.5761129864396    -2.98315004553234     19.9489408892266
    2.49719163207143    -3.74940436160791    -1.67581757634736
  -0.177686658121278    -11.3872112160413     6.75912216833355
    9.46793691120655    -9.57926867741699    -5.95913823194176
  -0.486444830915184    -6.90772140063881    0.459020067265642
   0.843251079283337     2.87521495134276    -0.42097415889316
    7.00303551309538    -10.4365047784357    0.793482381427964
   0.119322073117948    -2.88736288598964    -10.2264336660879
   -4.09503386207449     5.12361719297398    -5.37161259465733
   -12.6289558974447    -7.31167148441315  -0.0346119654833794
    0.24176108072852    -1.07344273009734    -2.62945507996551
   -2.64217433577319     5.88675013304522     6.22187882012407
   -6.99120496531086       5.353899164889     2.07078149500821
   -5.84109897493254     2.07747454091282    -7.74478877745217
   -0.83054401146507    -3.11652844748665      6.6330054050336
   -13.6200005507493    -3.49767027430554     -3.2760080033037
   -7.35797772616426     -7.3522062260522    -6.15831866412435
    -6.3369976263591    -7.02708030292898    -14.1510014864253
   -8.41965205140837     9.21200282069954    -0.98571020780504
   -2.81076964582073    -1.23623211495526    -3.58783762128806
   -4.59494119486294    -13.4948736706071     -2.9517028197008
   -8.19476804045056    -3.42916795651314    -2.18479109118307
   -2.67043137936159    -5.03437784469607     1.50725593576302
    -2.7253430555494     8.52944053677121    0.894550624917874
   -3.86343281371148   -0.702991283366866     6.18977531823841
   -10.9366769149963    -8.50845246440248     11.3913802147891
   -7.75416551501809    -9.28653254453075     1.46763160820415
   -10.5291102604332     8.16793059922792    -13.3840428809488
    -12.031603074663     7.78542974520556   -0.162981777156105
    2.83013653718855     5.17665179943309     12.7804564489409
   -5.02021294844088    -12.9298519545684     4.53746832686394
   -5.91722832926639    -14.2667995978385     7.93766035075305
  -0.829912138597553    -4.05437174758733    0.811810668137094
   -14.1533909407669    -1.67849112048584    0.635240164249924
   0.581773848798037    -4.24097002837913     4.33522630505952
   -3.92372627751325     1.46953922884647     9.83716671350462
   -8.47590789291491    0.894089929438038   -0.565639089238269
   -7.41728284788599     3.93735830818345    -13.6951634203421
   0.495407185649549    -2.14866182029562     -3.5212737478964
   -5.94522700725112     1.07084634718012     7.67748064236233
    1.22547542248035    -9.16365921967247    -5.75954965069748
   -4.99749548627079     8.89145735199511    -2.79976515490649
   -14.6897759043402     6.22951872784144     1.64824051598705
   -3.70052272940885     4.66262109374133    -3.99892545793947
    1.44732102086977    -1.89302368651471    -2.35080720727051
   -11.5609092744125    -6.78156313935547    -7.21074541546266
   -0.23759982615369    -5.86856448294591   -0.298711847392404
   -3.39210188071886     6.43512913930049    -11.6602510511093
   -6.66482297283675     6.06736414119327    -6.15356671483275
   -9.51691204544102      0.9165921523442     6.74849470888111
   -4.03377435082601    -8.09412504856934     9.01798093344047
   -12.2182779489446    -0.54425215615141    -1.60316522322297
   -13.5650323781655    -6.70198289117632     1.11966036740484
  -0.270627679052234     7.48148255267241     6.05722341106013
   -8.32435449323395    -2.15056640230199    -3.93622671913085
   0.317784228094072     6.51325241424476     9.41133395770618
   -8.59202598802274    -7.41719028641556     11.0884379779713
     5.7082639523223    -5.58106155800237     8.11776451338117
  -0.278513134198181      11.102534136073    -3.47944244505129
    4.87229509259933    0.872314873861533    -2.73646375714069