ITEM: TIMESTEP
0
ITEM: NUMBER OF ATOMS
1000
ITEM: BOX BOUNDS pp pp pp
-5.5000000000000000e+00 5.5000000000000000e+00
-5.5000000000000000e+00 5.5000000000000000e+00
-5.5000000000000000e+00 5.5000000000000000e+00
ITEM: ATOMS id type xs ys zs
1 1 0.0909091 0.0909091 0.0909091
2 1 0.181818 0.0909091 0.0909091
3 1 0.272727 0.0909091 0.0909091
11 1 0.0909091 0.181818 0.0909091
12 1 0.181818 0.181818 0.0909091
13 1 0.272727 0.181818 0.0909091
21 1 0.0909091 0.272727 0.0909091
22 1 0.181818 0.272727 0.0909091
23 1 0.272727 0.272727 0.0909091
101 1 0.0909091 0.0909091 0.181818
102 1 0.181818 0.0909091 0.181818
103 1 0.272727 0.0909091 0.181818
111 1 0.0909091 0.181818 0.181818
112 1 0.181818 0.181818 0.181818
113 1 0.272727 0.181818 0.181818
121 1 0.0909091 0.272727 0.181818
122 1 0.181818 0.272727 0.181818
123 1 0.272727 0.272727 0.181818
201 1 0.0909091 0.0909091 0.272727
202 1 0.181818 0.0909091 0.272727
203 1 0.272727 0.0909091 0.272727
211 1 0.0909091 0.181818 0.272727
212 1 0.181818 0.181818 0.272727
213 1 0.272727 0.181818 0.272727
221 1 0.0909091 0.272727 0.272727
222 1 0.181818 0.272727 0.272727
223 1 0.272727 0.272727 0.272727
4 1 0.363636 0.0909091 0.0909091
5 1 0.454545 0.0909091 0.0909091
6 1 0.545455 0.0909091 0.0909091
7 1 0.636364 0.0909091 0.0909091
14 1 0.363636 0.181818 0.0909091
15 1 0.454545 0.181818 0.0909091
16 1 0.545455 0.181818 0.0909091
17 1 0.636364 0.181818 0.0909091
24 1 0.363636 0.272727 0.0909091
25 1 0.454545 0.272727 0.0909091
26 1 0.545455 0.272727 0.0909091
27 1 0.636364 0.272727 0.0909091
104 1 0.363636 0.0909091 0.181818
105 1 0.454545 0.0909091 0.181818
106 1 0.545455 0.0909091 0.181818
107 1 0.636364 0.0909091 0.181818
114 1 0.363636 0.181818 0.181818
115 1 0.454545 0.181818 0.181818
116 1 0.545455 0.181818 0.181818
117 1 0.636364 0.181818 0.181818
124 1 0.363636 0.272727 0.181818
125 1 0.454545 0.272727 0.181818
126 1 0.545455 0.272727 0.181818
127 1 0.636364 0.272727 0.181818
204 1 0.363636 0.0909091 0.272727
205 1 0.454545 0.0909091 0.272727
206 1 0.545455 0.0909091 0.272727
207 1 0.636364 0.0909091 0.272727
214 1 0.363636 0.181818 0.272727
215 1 0.454545 0.181818 0.272727
216 1 0.545455 0.181818 0.272727
217 1 0.636364 0.181818 0.272727
224 1 0.363636 0.272727 0.272727
225 1 0.454545 0.272727 0.272727
226 1 0.545455 0.272727 0.272727
227 1 0.636364 0.272727 0.272727
8 1 0.727273 0.0909091 0.0909091
9 1 0.818182 0.0909091 0.0909091
10 1 0.909091 0.0909091 0.0909091
18 1 0.727273 0.181818 0.0909091
19 1 0.818182 0.181818 0.0909091
20 1 0.909091 0.181818 0.0909091
28 1 0.727273 0.272727 0.0909091
29 1 0.818182 0.272727 0.0909091
30 1 0.909091 0.272727 0.0909091
108 1 0.727273 0.0909091 0.181818
109 1 0.818182 0.0909091 0.181818
110 1 0.909091 0.0909091 0.181818
118 1 0.727273 0.181818 0.181818
119 1 0.818182 0.181818 0.181818
120 1 0.909091 0.181818 0.181818
128 1 0.727273 0.272727 0.181818
129 1 0.818182 0.272727 0.181818
130 1 0.909091 0.272727 0.181818
208 1 0.727273 0.0909091 0.272727
209 1 0.818182 0.0909091 0.272727
210 1 0.909091 0.0909091 0.272727
218 1 0.727273 0.181818 0.272727
219 1 0.818182 0.181818 0.272727
220 1 0.909091 0.181818 0.272727
228 1 0.727273 0.272727 0.272727
229 1 0.818182 0.272727 0.272727
230 1 0.909091 0.272727 0.272727
31 1 0.0909091 0.363636 0.0909091
32 1 0.181818 0.363636 0.0909091
33 1 0.272727 0.363636 0.0909091
41 1 0.0909091 0.454545 0.0909091
42 1 0.181818 0.454545 0.0909091
43 1 0.272727 0.454545 0.0909091
51 1 0.0909091 0.545455 0.0909091
52 1 0.181818 0.545455 0.0909091
53 1 0.272727 0.545455 0.0909091
61 1 0.0909091 0.636364 0.0909091
62 1 0.181818 0.636364 0.0909091
63 1 0.272727 0.636364 0.0909091
131 1 0.0909091 0.363636 0.181818
132 1 0.181818 0.363636 0.181818
133 1 0.272727 0.363636 0.181818
141 1 0.0909091 0.454545 0.181818
142 1 0.181818 0.454545 0.181818
143 1 0.272727 0.454545 0.181818
151 1 0.0909091 0.545455 0.181818
152 1 0.181818 0.545455 0.181818
153 1 0.272727 0.545455 0.181818
161 1 0.0909091 0.636364 0.181818
162 1 0.181818 0.636364 0.181818
163 1 0.272727 0.636364 0.181818
231 1 0.0909091 0.363636 0.272727
232 1 0.181818 0.363636 0.272727
233 1 0.272727 0.363636 0.272727
241 1 0.0909091 0.454545 0.272727
242 1 0.181818 0.454545 0.272727
243 1 0.272727 0.454545 0.272727
251 1 0.0909091 0.545455 0.272727
252 1 0.181818 0.545455 0.272727
253 1 0.272727 0.545455 0.272727
261 1 0.0909091 0.636364 0.272727
262 1 0.181818 0.636364 0.272727
263 1 0.272727 0.636364 0.272727
34 1 0.363636 0.363636 0.0909091
35 1 0.454545 0.363636 0.0909091
36 1 0.545455 0.363636 0.0909091
37 1 0.636364 0.363636 0.0909091
44 1 0.363636 0.454545 0.0909091
45 1 0.454545 0.454545 0.0909091
46 1 0.545455 0.454545 0.0909091
47 1 0.636364 0.454545 0.0909091
54 1 0.363636 0.545455 0.0909091
55 1 0.454545 0.545455 0.0909091
56 1 0.545455 0.545455 0.0909091
57 1 0.636364 0.545455 0.0909091
64 1 0.363636 0.636364 0.0909091
65 1 0.454545 0.636364 0.0909091
66 1 0.545455 0.636364 0.0909091
67 1 0.636364 0.636364 0.0909091
134 1 0.363636 0.363636 0.181818
135 1 0.454545 0.363636 0.181818
136 1 0.545455 0.363636 0.181818
137 1 0.636364 0.363636 0.181818
144 1 0.363636 0.454545 0.181818
145 1 0.454545 0.454545 0.181818
146 1 0.545455 0.454545 0.181818
147 1 0.636364 0.454545 0.181818
154 1 0.363636 0.545455 0.181818
155 1 0.454545 0.545455 0.181818
156 1 0.545455 0.545455 0.181818
157 1 0.636364 0.545455 0.181818
164 1 0.363636 0.636364 0.181818
165 1 0.454545 0.636364 0.181818
166 1 0.545455 0.636364 0.181818
167 1 0.636364 0.636364 0.181818
234 1 0.363636 0.363636 0.272727
235 1 0.454545 0.363636 0.272727
236 1 0.545455 0.363636 0.272727
237 1 0.636364 0.363636 0.272727
244 1 0.363636 0.454545 0.272727
245 1 0.454545 0.454545 0.272727
246 1 0.545455 0.454545 0.272727
247 1 0.636364 0.454545 0.272727
254 1 0.363636 0.545455 0.272727
255 1 0.454545 0.545455 0.272727
256 1 0.545455 0.545455 0.272727
257 1 0.636364 0.545455 0.272727
264 1 0.363636 0.636364 0.272727
265 1 0.454545 0.636364 0.272727
266 1 0.545455 0.636364 0.272727
267 1 0.636364 0.636364 0.272727
38 1 0.727273 0.363636 0.0909091
39 1 0.818182 0.363636 0.0909091
40 1 0.909091 0.363636 0.0909091
48 1 0.727273 0.454545 0.0909091
49 1 0.818182 0.454545 0.0909091
50 1 0.909091 0.454545 0.0909091
58 1 0.727273 0.545455 0.0909091
59 1 0.818182 0.545455 0.0909091
60 1 0.909091 0.545455 0.0909091
68 1 0.727273 0.636364 0.0909091
69 1 0.818182 0.636364 0.0909091
70 1 0.909091 0.636364 0.0909091
138 1 0.727273 0.363636 0.181818
139 1 0.818182 0.363636 0.181818
140 1 0.909091 0.363636 0.181818
148 1 0.727273 0.454545 0.181818
149 1 0.818182 0.454545 0.181818
150 1 0.909091 0.454545 0.181818
158 1 0.727273 0.545455 0.181818
159 1 0.818182 0.545455 0.181818
160 1 0.909091 0.545455 0.181818
168 1 0.727273 0.636364 0.181818
169 1 0.818182 0.636364 0.181818
170 1 0.909091 0.636364 0.181818
238 1 0.727273 0.363636 0.272727
239 1 0.818182 0.363636 0.272727
240 1 0.909091 0.363636 0.272727
248 1 0.727273 0.454545 0.272727
249 1 0.818182 0.454545 0.272727
250 1 0.909091 0.454545 0.272727
258 1 0.727273 0.545455 0.272727
259 1 0.818182 0.545455 0.272727
260 1 0.909091 0.545455 0.272727
268 1 0.727273 0.636364 0.272727
269 1 0.818182 0.636364 0.272727
270 1 0.909091 0.636364 0.272727
71 1 0.0909091 0.727273 0.0909091
72 1 0.181818 0.727273 0.0909091
73 1 0.272727 0.727273 0.0909091
81 1 0.0909091 0.818182 0.0909091
82 1 0.181818 0.818182 0.0909091
83 1 0.272727 0.818182 0.0909091
91 1 0.0909091 0.909091 0.0909091
92 1 0.181818 0.909091 0.0909091
93 1 0.272727 0.909091 0.0909091
171 1 0.0909091 0.727273 0.181818
172 1 0.181818 0.727273 0.181818
173 1 0.272727 0.727273 0.181818
181 1 0.0909091 0.818182 0.181818
182 1 0.181818 0.818182 0.181818
183 1 0.272727 0.818182 0.181818
191 1 0.0909091 0.909091 0.181818
192 1 0.181818 0.909091 0.181818
193 1 0.272727 0.909091 0.181818
271 1 0.0909091 0.727273 0.272727
272 1 0.181818 0.727273 0.272727
273 1 0.272727 0.727273 0.272727
281 1 0.0909091 0.818182 0.272727
282 1 0.181818 0.818182 0.272727
283 1 0.272727 0.818182 0.272727
291 1 0.0909091 0.909091 0.272727
292 1 0.181818 0.909091 0.272727
293 1 0.272727 0.909091 0.272727
74 1 0.363636 0.727273 0.0909091
75 1 0.454545 0.727273 0.0909091
76 1 0.545455 0.727273 0.0909091
77 1 0.636364 0.727273 0.0909091
84 1 0.363636 0.818182 0.0909091
85 1 0.454545 0.818182 0.0909091
86 1 0.545455 0.818182 0.0909091
87 1 0.636364 0.818182 0.0909091
94 1 0.363636 0.909091 0.0909091
95 1 0.454545 0.909091 0.0909091
96 1 0.545455 0.909091 0.0909091
97 1 0.636364 0.909091 0.0909091
174 1 0.363636 0.727273 0.181818
175 1 0.454545 0.727273 0.181818
176 1 0.545455 0.727273 0.181818
177 1 0.636364 0.727273 0.181818
184 1 0.363636 0.818182 0.181818
185 1 0.454545 0.818182 0.181818
186 1 0.545455 0.818182 0.181818
187 1 0.636364 0.818182 0.181818
194 1 0.363636 0.909091 0.181818
195 1 0.454545 0.909091 0.181818
196 1 0.545455 0.909091 0.181818
197 1 0.636364 0.909091 0.181818
274 1 0.363636 0.727273 0.272727
275 1 0.454545 0.727273 0.272727
276 1 0.545455 0.727273 0.272727
277 1 0.636364 0.727273 0.272727
284 1 0.363636 0.818182 0.272727
285 1 0.454545 0.818182 0.272727
286 1 0.545455 0.818182 0.272727
287 1 0.636364 0.818182 0.272727
294 1 0.363636 0.909091 0.272727
295 1 0.454545 0.909091 0.272727
296 1 0.545455 0.909091 0.272727
297 1 0.636364 0.909091 0.272727
78 1 0.727273 0.727273 0.0909091
79 1 0.818182 0.727273 0.0909091
80 1 0.909091 0.727273 0.0909091
88 1 0.727273 0.818182 0.0909091
89 1 0.818182 0.818182 0.0909091
90 1 0.909091 0.818182 0.0909091
98 1 0.727273 0.909091 0.0909091
99 1 0.818182 0.909091 0.0909091
100 1 0.909091 0.909091 0.0909091
178 1 0.727273 0.727273 0.181818
179 1 0.818182 0.727273 0.181818
180 1 0.909091 0.727273 0.181818
188 1 0.727273 0.818182 0.181818
189 1 0.818182 0.818182 0.181818
190 1 0.909091 0.818182 0.181818
198 1 0.727273 0.909091 0.181818
199 1 0.818182 0.909091 0.181818
200 1 0.909091 0.909091 0.181818
278 1 0.727273 0.727273 0.272727
279 1 0.818182 0.727273 0.272727
280 1 0.909091 0.727273 0.272727
288 1 0.727273 0.818182 0.272727
289 1 0.818182 0.818182 0.272727
290 1 0.909091 0.818182 0.272727
298 1 0.727273 0.909091 0.272727
299 1 0.818182 0.909091 0.272727
300 1 0.909091 0.909091 0.272727
301 1 0.0909091 0.0909091 0.363636
302 1 0.181818 0.0909091 0.363636
303 1 0.272727 0.0909091 0.363636
311 1 0.0909091 0.181818 0.363636
312 1 0.181818 0.181818 0.363636
313 1 0.272727 0.181818 0.363636
321 1 0.0909091 0.272727 0.363636
322 1 0.181818 0.272727 0.363636
323 1 0.272727 0.272727 0.363636
401 1 0.0909091 0.0909091 0.454545
402 1 0.181818 0.0909091 0.454545
403 1 0.272727 0.0909091 0.454545
411 1 0.0909091 0.181818 0.454545
412 1 0.181818 0.181818 0.454545
413 1 0.272727 0.181818 0.454545
421 1 0.0909091 0.272727 0.454545
422 1 0.181818 0.272727 0.454545
423 1 0.272727 0.272727 0.454545
501 1 0.0909091 0.0909091 0.545455
502 1 0.181818 0.0909091 0.545455
503 1 0.272727 0.0909091 0.545455
511 1 0.0909091 0.181818 0.545455
512 1 0.181818 0.181818 0.545455
513 1 0.272727 0.181818 0.545455
521 1 0.0909091 0.272727 0.545455
522 1 0.181818 0.272727 0.545455
523 1 0.272727 0.272727 0.545455
601 1 0.0909091 0.0909091 0.636364
602 1 0.181818 0.0909091 0.636364
603 1 0.272727 0.0909091 0.636364
611 1 0.0909091 0.181818 0.636364
612 1 0.181818 0.181818 0.636364
613 1 0.272727 0.181818 0.636364
621 1 0.0909091 0.272727 0.636364
622 1 0.181818 0.272727 0.636364
623 1 0.272727 0.272727 0.636364
304 1 0.363636 0.0909091 0.363636
305 1 0.454545 0.0909091 0.363636
306 1 0.545455 0.0909091 0.363636
307 1 0.636364 0.0909091 0.363636
314 1 0.363636 0.181818 0.363636
315 1 0.454545 0.181818 0.363636
316 1 0.545455 0.181818 0.363636
317 1 0.636364 0.181818 0.363636
324 1 0.363636 0.272727 0.363636
325 1 0.454545 0.272727 0.363636
326 1 0.545455 0.272727 0.363636
327 1 0.636364 0.272727 0.363636
404 1 0.363636 0.0909091 0.454545
405 1 0.454545 0.0909091 0.454545
406 1 0.545455 0.0909091 0.454545
407 1 0.636364 0.0909091 0.454545
414 1 0.363636 0.181818 0.454545
415 1 0.454545 0.181818 0.454545
416 1 0.545455 0.181818 0.454545
417 1 0.636364 0.181818 0.454545
424 1 0.363636 0.272727 0.454545
425 1 0.454545 0.272727 0.454545
426 1 0.545455 0.272727 0.454545
427 1 0.636364 0.272727 0.454545
504 1 0.363636 0.0909091 0.545455
505 1 0.454545 0.0909091 0.545455
506 1 0.545455 0.0909091 0.545455
507 1 0.636364 0.0909091 0.545455
514 1 0.363636 0.181818 0.545455
515 1 0.454545 0.181818 0.545455
516 1 0.545455 0.181818 0.545455
517 1 0.636364 0.181818 0.545455
524 1 0.363636 0.272727 0.545455
525 1 0.454545 0.272727 0.545455
526 1 0.545455 0.272727 0.545455
527 1 0.636364 0.272727 0.545455
604 1 0.363636 0.0909091 0.636364
605 1 0.454545 0.0909091 0.636364
606 1 0.545455 0.0909091 0.636364
607 1 0.636364 0.0909091 0.636364
614 1 0.363636 0.181818 0.636364
615 1 0.454545 0.181818 0.636364
616 1 0.545455 0.181818 0.636364
617 1 0.636364 0.181818 0.636364
624 1 0.363636 0.272727 0.636364
625 1 0.454545 0.272727 0.636364
626 1 0.545455 0.272727 0.636364
627 1 0.636364 0.272727 0.636364
308 1 0.727273 0.0909091 0.363636
309 1 0.818182 0.0909091 0.363636
310 1 0.909091 0.0909091 0.363636
318 1 0.727273 0.181818 0.363636
319 1 0.818182 0.181818 0.363636
320 1 0.909091 0.181818 0.363636
328 1 0.727273 0.272727 0.363636
329 1 0.818182 0.272727 0.363636
330 1 0.909091 0.272727 0.363636
408 1 0.727273 0.0909091 0.454545
409 1 0.818182 0.0909091 0.454545
410 1 0.909091 0.0909091 0.454545
418 1 0.727273 0.181818 0.454545
419 1 0.818182 0.181818 0.454545
420 1 0.909091 0.181818 0.454545
428 1 0.727273 0.272727 0.454545
429 1 0.818182 0.272727 0.454545
430 1 0.909091 0.272727 0.454545
508 1 0.727273 0.0909091 0.545455
509 1 0.818182 0.0909091 0.545455
510 1 0.909091 0.0909091 0.545455
518 1 0.727273 0.181818 0.545455
519 1 0.818182 0.181818 0.545455
520 1 0.909091 0.181818 0.545455
528 1 0.727273 0.272727 0.545455
529 1 0.818182 0.272727 0.545455
530 1 0.909091 0.272727 0.545455
608 1 0.727273 0.0909091 0.636364
609 1 0.818182 0.0909091 0.636364
610 1 0.909091 0.0909091 0.636364
618 1 0.727273 0.181818 0.636364
619 1 0.818182 0.181818 0.636364
620 1 0.909091 0.181818 0.636364
628 1 0.727273 0.272727 0.636364
629 1 0.818182 0.272727 0.636364
630 1 0.909091 0.272727 0.636364
331 1 0.0909091 0.363636 0.363636
332 1 0.181818 0.363636 0.363636
333 1 0.272727 0.363636 0.363636
341 1 0.0909091 0.454545 0.363636
342 1 0.181818 0.454545 0.363636
343 1 0.272727 0.454545 0.363636
351 1 0.0909091 0.545455 0.363636
352 1 0.181818 0.545455 0.363636
353 1 0.272727 0.545455 0.363636
361 1 0.0909091 0.636364 0.363636
362 1 0.181818 0.636364 0.363636
363 1 0.272727 0.636364 0.363636
431 1 0.0909091 0.363636 0.454545
432 1 0.181818 0.363636 0.454545
433 1 0.272727 0.363636 0.454545
441 1 0.0909091 0.454545 0.454545
442 1 0.181818 0.454545 0.454545
443 1 0.272727 0.454545 0.454545
451 1 0.0909091 0.545455 0.454545
452 1 0.181818 0.545455 0.454545
453 1 0.272727 0.545455 0.454545
461 1 0.0909091 0.636364 0.454545
462 1 0.181818 0.636364 0.454545
463 1 0.272727 0.636364 0.454545
531 1 0.0909091 0.363636 0.545455
532 1 0.181818 0.363636 0.545455
533 1 0.272727 0.363636 0.545455
541 1 0.0909091 0.454545 0.545455
542 1 0.181818 0.454545 0.545455
543 1 0.272727 0.454545 0.545455
551 1 0.0909091 0.545455 0.545455
552 1 0.181818 0.545455 0.545455
553 1 0.272727 0.545455 0.545455
561 1 0.0909091 0.636364 0.545455
562 1 0.181818 0.636364 0.545455
563 1 0.272727 0.636364 0.545455
631 1 0.0909091 0.363636 0.636364
632 1 0.181818 0.363636 0.636364
633 1 0.272727 0.363636 0.636364
641 1 0.0909091 0.454545 0.636364
642 1 0.181818 0.454545 0.636364
643 1 0.272727 0.454545 0.636364
651 1 0.0909091 0.545455 0.636364
652 1 0.181818 0.545455 0.636364
653 1 0.272727 0.545455 0.636364
661 1 0.0909091 0.636364 0.636364
662 1 0.181818 0.636364 0.636364
663 1 0.272727 0.636364 0.636364
334 1 0.363636 0.363636 0.363636
335 1 0.454545 0.363636 0.363636
336 1 0.545455 0.363636 0.363636
337 1 0.636364 0.363636 0.363636
344 1 0.363636 0.454545 0.363636
345 1 0.454545 0.454545 0.363636
346 1 0.545455 0.454545 0.363636
347 1 0.636364 0.454545 0.363636
354 1 0.363636 0.545455 0.363636
355 1 0.454545 0.545455 0.363636
356 1 0.545455 0.545455 0.363636
357 1 0.636364 0.545455 0.363636
364 1 0.363636 0.636364 0.363636
365 1 0.454545 0.636364 0.363636
366 1 0.545455 0.636364 0.363636
367 1 0.636364 0.636364 0.363636
434 1 0.363636 0.363636 0.454545
435 1 0.454545 0.363636 0.454545
436 1 0.545455 0.363636 0.454545
437 1 0.636364 0.363636 0.454545
444 1 0.363636 0.454545 0.454545
445 1 0.454545 0.454545 0.454545
446 1 0.545455 0.454545 0.454545
447 1 0.636364 0.454545 0.454545
454 1 0.363636 0.545455 0.454545
455 1 0.454545 0.545455 0.454545
456 1 0.545455 0.545455 0.454545
457 1 0.636364 0.545455 0.454545
464 1 0.363636 0.636364 0.454545
465 1 0.454545 0.636364 0.454545
466 1 0.545455 0.636364 0.454545
467 1 0.636364 0.636364 0.454545
534 1 0.363636 0.363636 0.545455
535 1 0.454545 0.363636 0.545455
536 1 0.545455 0.363636 0.545455
537 1 0.636364 0.363636 0.545455
544 1 0.363636 0.454545 0.545455
545 1 0.454545 0.454545 0.545455
546 1 0.545455 0.454545 0.545455
547 1 0.636364 0.454545 0.545455
554 1 0.363636 0.545455 0.545455
555 1 0.454545 0.545455 0.545455
556 1 0.545455 0.545455 0.545455
557 1 0.636364 0.545455 0.545455
564 1 0.363636 0.636364 0.545455
565 1 0.454545 0.636364 0.545455
566 1 0.545455 0.636364 0.545455
567 1 0.636364 0.636364 0.545455
634 1 0.363636 0.363636 0.636364
635 1 0.454545 0.363636 0.636364
636 1 0.545455 0.363636 0.636364
637 1 0.636364 0.363636 0.636364
644 1 0.363636 0.454545 0.636364
645 1 0.454545 0.454545 0.636364
646 1 0.545455 0.454545 0.636364
647 1 0.636364 0.454545 0.636364
654 1 0.363636 0.545455 0.636364
655 1 0.454545 0.545455 0.636364
656 1 0.545455 0.545455 0.636364
657 1 0.636364 0.545455 0.636364
664 1 0.363636 0.636364 0.636364
665 1 0.454545 0.636364 0.636364
666 1 0.545455 0.636364 0.636364
667 1 0.636364 0.636364 0.636364
338 1 0.727273 0.363636 0.363636
339 1 0.818182 0.363636 0.363636
340 1 0.909091 0.363636 0.363636
348 1 0.727273 0.454545 0.363636
349 1 0.818182 0.454545 0.363636
350 1 0.909091 0.454545 0.363636
358 1 0.727273 0.545455 0.363636
359 1 0.818182 0.545455 0.363636
360 1 0.909091 0.545455 0.363636
368 1 0.727273 0.636364 0.363636
369 1 0.818182 0.636364 0.363636
370 1 0.909091 0.636364 0.363636
438 1 0.727273 0.363636 0.454545
439 1 0.818182 0.363636 0.454545
440 1 0.909091 0.363636 0.454545
448 1 0.727273 0.454545 0.454545
449 1 0.818182 0.454545 0.454545
450 1 0.909091 0.454545 0.454545
458 1 0.727273 0.545455 0.454545
459 1 0.818182 0.545455 0.454545
460 1 0.909091 0.545455 0.454545
468 1 0.727273 0.636364 0.454545
469 1 0.818182 0.636364 0.454545
470 1 0.909091 0.636364 0.454545
538 1 0.727273 0.363636 0.545455
539 1 0.818182 0.363636 0.545455
540 1 0.909091 0.363636 0.545455
548 1 0.727273 0.454545 0.545455
549 1 0.818182 0.454545 0.545455
550 1 0.909091 0.454545 0.545455
558 1 0.727273 0.545455 0.545455
559 1 0.818182 0.545455 0.545455
560 1 0.909091 0.545455 0.545455
568 1 0.727273 0.636364 0.545455
569 1 0.818182 0.636364 0.545455
570 1 0.909091 0.636364 0.545455
638 1 0.727273 0.363636 0.636364
639 1 0.818182 0.363636 0.636364
640 1 0.909091 0.363636 0.636364
648 1 0.727273 0.454545 0.636364
649 1 0.818182 0.454545 0.636364
650 1 0.909091 0.454545 0.636364
658 1 0.727273 0.545455 0.636364
659 1 0.818182 0.545455 0.636364
660 1 0.909091 0.545455 0.636364
668 1 0.727273 0.636364 0.636364
669 1 0.818182 0.636364 0.636364
670 1 0.909091 0.636364 0.636364
371 1 0.0909091 0.727273 0.363636
372 1 0.181818 0.727273 0.363636
373 1 0.272727 0.727273 0.363636
381 1 0.0909091 0.818182 0.363636
382 1 0.181818 0.818182 0.363636
383 1 0.272727 0.818182 0.363636
391 1 0.0909091 0.909091 0.363636
392 1 0.181818 0.909091 0.363636
393 1 0.272727 0.909091 0.363636
471 1 0.0909091 0.727273 0.454545
472 1 0.181818 0.727273 0.454545
473 1 0.272727 0.727273 0.454545
481 1 0.0909091 0.818182 0.454545
482 1 0.181818 0.818182 0.454545
483 1 0.272727 0.818182 0.454545
491 1 0.0909091 0.909091 0.454545
492 1 0.181818 0.909091 0.454545
493 1 0.272727 0.909091 0.454545
571 1 0.0909091 0.727273 0.545455
572 1 0.181818 0.727273 0.545455
573 1 0.272727 0.727273 0.545455
581 1 0.0909091 0.818182 0.545455
582 1 0.181818 0.818182 0.545455
583 1 0.272727 0.818182 0.545455
591 1 0.0909091 0.909091 0.545455
592 1 0.181818 0.909091 0.545455
593 1 0.272727 0.909091 0.545455
671 1 0.0909091 0.727273 0.636364
672 1 0.181818 0.727273 0.636364
673 1 0.272727 0.727273 0.636364
681 1 0.0909091 0.818182 0.636364
682 1 0.181818 0.818182 0.636364
683 1 0.272727 0.818182 0.636364
691 1 0.0909091 0.909091 0.636364
692 1 0.181818 0.909091 0.636364
693 1 0.272727 0.909091 0.636364
374 1 0.363636 0.727273 0.363636
375 1 0.454545 0.727273 0.363636
376 1 0.545455 0.727273 0.363636
377 1 0.636364 0.727273 0.363636
384 1 0.363636 0.818182 0.363636
385 1 0.454545 0.818182 0.363636
386 1 0.545455 0.818182 0.363636
387 1 0.636364 0.818182 0.363636
394 1 0.363636 0.909091 0.363636
395 1 0.454545 0.909091 0.363636
396 1 0.545455 0.909091 0.363636
397 1 0.636364 0.909091 0.363636
474 1 0.363636 0.727273 0.454545
475 1 0.454545 0.727273 0.454545
476 1 0.545455 0.727273 0.454545
477 1 0.636364 0.727273 0.454545
484 1 0.363636 0.818182 0.454545
485 1 0.454545 0.818182 0.454545
486 1 0.545455 0.818182 0.454545
487 1 0.636364 0.818182 0.454545
494 1 0.363636 0.909091 0.454545
495 1 0.454545 0.909091 0.454545
496 1 0.545455 0.909091 0.454545
497 1 0.636364 0.909091 0.454545
574 1 0.363636 0.727273 0.545455
575 1 0.454545 0.727273 0.545455
576 1 0.545455 0.727273 0.545455
577 1 0.636364 0.727273 0.545455
584 1 0.363636 0.818182 0.545455
585 1 0.454545 0.818182 0.545455
586 1 0.545455 0.818182 0.545455
587 1 0.636364 0.818182 0.545455
594 1 0.363636 0.909091 0.545455
595 1 0.454545 0.909091 0.545455
596 1 0.545455 0.909091 0.545455
597 1 0.636364 0.909091 0.545455
674 1 0.363636 0.727273 0.636364
675 1 0.454545 0.727273 0.636364
676 1 0.545455 0.727273 0.636364
677 1 0.636364 0.727273 0.636364
684 1 0.363636 0.818182 0.636364
685 1 0.454545 0.818182 0.636364
686 1 0.545455 0.818182 0.636364
687 1 0.636364 0.818182 0.636364
694 1 0.363636 0.909091 0.636364
695 1 0.454545 0.909091 0.636364
696 1 0.545455 0.909091 0.636364
697 1 0.636364 0.909091 0.636364
378 1 0.727273 0.727273 0.363636
379 1 0.818182 0.727273 0.363636
380 1 0.909091 0.727273 0.363636
388 1 0.727273 0.818182 0.363636
389 1 0.818182 0.818182 0.363636
390 1 0.909091 0.818182 0.363636
398 1 0.727273 0.909091 0.363636
399 1 0.818182 0.909091 0.363636
400 1 0.909091 0.909091 0.363636
478 1 0.727273 0.727273 0.454545
479 1 0.818182 0.727273 0.454545
480 1 0.909091 0.727273 0.454545
488 1 0.727273 0.818182 0.454545
489 1 0.818182 0.818182 0.454545
490 1 0.909091 0.818182 0.454545
498 1 0.727273 0.909091 0.454545
499 1 0.818182 0.909091 0.454545
500 1 0.909091 0.909091 0.454545
578 1 0.727273 0.727273 0.545455
579 1 0.818182 0.727273 0.545455
580 1 0.909091 0.727273 0.545455
588 1 0.727273 0.818182 0.545455
589 1 0.818182 0.818182 0.545455
590 1 0.909091 0.818182 0.545455
598 1 0.727273 0.909091 0.545455
599 1 0.818182 0.909091 0.545455
600 1 0.909091 0.909091 0.545455
678 1 0.727273 0.727273 0.636364
679 1 0.818182 0.727273 0.636364
680 1 0.909091 0.727273 0.636364
688 1 0.727273 0.818182 0.636364
689 1 0.818182 0.818182 0.636364
690 1 0.909091 0.818182 0.636364
698 1 0.727273 0.909091 0.636364
699 1 0.818182 0.909091 0.636364
700 1 0.909091 0.909091 0.636364
701 1 0.0909091 0.0909091 0.727273
702 1 0.181818 0.0909091 0.727273
703 1 0.272727 0.0909091 0.727273
711 1 0.0909091 0.181818 0.727273
712 1 0.181818 0.181818 0.727273
713 1 0.272727 0.181818 0.727273
721 1 0.0909091 0.272727 0.727273
722 1 0.181818 0.272727 0.727273
723 1 0.272727 0.272727 0.727273
801 1 0.0909091 0.0909091 0.818182
802 1 0.181818 0.0909091 0.818182
803 1 0.272727 0.0909091 0.818182
811 1 0.0909091 0.181818 0.818182
812 1 0.181818 0.181818 0.818182
813 1 0.272727 0.181818 0.818182
821 1 0.0909091 0.272727 0.818182
822 1 0.181818 0.272727 0.818182
823 1 0.272727 0.272727 0.818182
901 1 0.0909091 0.0909091 0.909091
902 1 0.181818 0.0909091 0.909091
903 1 0.272727 0.0909091 0.909091
911 1 0.0909091 0.181818 0.909091
912 1 0.181818 0.181818 0.909091
913 1 0.272727 0.181818 0.909091
921 1 0.0909091 0.272727 0.909091
922 1 0.181818 0.272727 0.909091
923 1 0.272727 0.272727 0.909091
704 1 0.363636 0.0909091 0.727273
705 1 0.454545 0.0909091 0.727273
706 1 0.545455 0.0909091 0.727273
707 1 0.636364 0.0909091 0.727273
714 1 0.363636 0.181818 0.727273
715 1 0.454545 0.181818 0.727273
716 1 0.545455 0.181818 0.727273
717 1 0.636364 0.181818 0.727273
724 1 0.363636 0.272727 0.727273
725 1 0.454545 0.272727 0.727273
726 1 0.545455 0.272727 0.727273
727 1 0.636364 0.272727 0.727273
804 1 0.363636 0.0909091 0.818182
805 1 0.454545 0.0909091 0.818182
806 1 0.545455 0.0909091 0.818182
807 1 0.636364 0.0909091 0.818182
814 1 0.363636 0.181818 0.818182
815 1 0.454545 0.181818 0.818182
816 1 0.545455 0.181818 0.818182
817 1 0.636364 0.181818 0.818182
824 1 0.363636 0.272727 0.818182
825 1 0.454545 0.272727 0.818182
826 1 0.545455 0.272727 0.818182
827 1 0.636364 0.272727 0.818182
904 1 0.363636 0.0909091 0.909091
905 1 0.454545 0.0909091 0.909091
906 1 0.545455 0.0909091 0.909091
907 1 0.636364 0.0909091 0.909091
914 1 0.363636 0.181818 0.909091
915 1 0.454545 0.181818 0.909091
916 1 0.545455 0.181818 0.909091
917 1 0.636364 0.181818 0.909091
924 1 0.363636 0.272727 0.909091
925 1 0.454545 0.272727 0.909091
926 1 0.545455 0.272727 0.909091
927 1 0.636364 0.272727 0.909091
708 1 0.727273 0.0909091 0.727273
709 1 0.818182 0.0909091 0.727273
710 1 0.909091 0.0909091 0.727273
718 1 0.727273 0.181818 0.727273
719 1 0.818182 0.181818 0.727273
720 1 0.909091 0.181818 0.727273
728 1 0.727273 0.272727 0.727273
729 1 0.818182 0.272727 0.727273
730 1 0.909091 0.272727 0.727273
808 1 0.727273 0.0909091 0.818182
809 1 0.818182 0.0909091 0.818182
810 1 0.909091 0.0909091 0.818182
818 1 0.727273 0.181818 0.818182
819 1 0.818182 0.181818 0.818182
820 1 0.909091 0.181818 0.818182
828 1 0.727273 0.272727 0.818182
829 1 0.818182 0.272727 0.818182
830 1 0.909091 0.272727 0.818182
908 1 0.727273 0.0909091 0.909091
909 1 0.818182 0.0909091 0.909091
910 1 0.909091 0.0909091 0.909091
918 1 0.727273 0.181818 0.909091
919 1 0.818182 0.181818 0.909091
920 1 0.909091 0.181818 0.909091
928 1 0.727273 0.272727 0.909091
929 1 0.818182 0.272727 0.909091
930 1 0.909091 0.272727 0.909091
731 1 0.0909091 0.363636 0.727273
732 1 0.181818 0.363636 0.727273
733 1 0.272727 0.363636 0.727273
741 1 0.0909091 0.454545 0.727273
742 1 0.181818 0.454545 0.727273
743 1 0.272727 0.454545 0.727273
751 1 0.0909091 0.545455 0.727273
752 1 0.181818 0.545455 0.727273
753 1 0.272727 0.545455 0.727273
761 1 0.0909091 0.636364 0.727273
762 1 0.181818 0.636364 0.727273
763 1 0.272727 0.636364 0.727273
831 1 0.0909091 0.363636 0.818182
832 1 0.181818 0.363636 0.818182
833 1 0.272727 0.363636 0.818182
841 1 0.0909091 0.454545 0.818182
842 1 0.181818 0.454545 0.818182
843 1 0.272727 0.454545 0.818182
851 1 0.0909091 0.545455 0.818182
852 1 0.181818 0.545455 0.818182
853 1 0.272727 0.545455 0.818182
861 1 0.0909091 0.636364 0.818182
862 1 0.181818 0.636364 0.818182
863 1 0.272727 0.636364 0.818182
931 1 0.0909091 0.363636 0.909091
932 1 0.181818 0.363636 0.909091
933 1 0.272727 0.363636 0.909091
941 1 0.0909091 0.454545 0.909091
942 1 0.181818 0.454545 0.909091
943 1 0.272727 0.454545 0.909091
951 1 0.0909091 0.545455 0.909091
952 1 0.181818 0.545455 0.909091
953 1 0.272727 0.545455 0.909091
961 1 0.0909091 0.636364 0.909091
962 1 0.181818 0.636364 0.909091
963 1 0.272727 0.636364 0.909091
734 1 0.363636 0.363636 0.727273
735 1 0.454545 0.363636 0.727273
736 1 0.545455 0.363636 0.727273
737 1 0.636364 0.363636 0.727273
744 1 0.363636 0.454545 0.727273
745 1 0.454545 0.454545 0.727273
746 1 0.545455 0.454545 0.727273
747 1 0.636364 0.454545 0.727273
754 1 0.363636 0.545455 0.727273
755 1 0.454545 0.545455 0.727273
756 1 0.545455 0.545455 0.727273
757 1 0.636364 0.545455 0.727273
764 1 0.363636 0.636364 0.727273
765 1 0.454545 0.636364 0.727273
766 1 0.545455 0.636364 0.727273
767 1 0.636364 0.636364 0.727273
834 1 0.363636 0.363636 0.818182
835 1 0.454545 0.363636 0.818182
836 1 0.545455 0.363636 0.818182
837 1 0.636364 0.363636 0.818182
844 1 0.363636 0.454545 0.818182
845 1 0.454545 0.454545 0.818182
846 1 0.545455 0.454545 0.818182
847 1 0.636364 0.454545 0.818182
854 1 0.363636 0.545455 0.818182
855 1 0.454545 0.545455 0.818182
856 1 0.545455 0.545455 0.818182
857 1 0.636364 0.545455 0.818182
864 1 0.363636 0.636364 0.818182
865 1 0.454545 0.636364 0.818182
866 1 0.545455 0.636364 0.818182
867 1 0.636364 0.636364 0.818182
934 1 0.363636 0.363636 0.909091
935 1 0.454545 0.363636 0.909091
936 1 0.545455 0.363636 0.909091
937 1 0.636364 0.363636 0.909091
944 1 0.363636 0.454545 0.909091
945 1 0.454545 0.454545 0.909091
946 1 0.545455 0.454545 0.909091
947 1 0.636364 0.454545 0.909091
954 1 0.363636 0.545455 0.909091
955 1 0.454545 0.545455 0.909091
956 1 0.545455 0.545455 0.909091
957 1 0.636364 0.545455 0.909091
964 1 0.363636 0.636364 0.909091
965 1 0.454545 0.636364 0.909091
966 1 0.545455 0.636364 0.909091
967 1 0.636364 0.636364 0.909091
738 1 0.727273 0.363636 0.727273
739 1 0.818182 0.363636 0.727273
740 1 0.909091 0.363636 0.727273
748 1 0.727273 0.454545 0.727273
749 1 0.818182 0.454545 0.727273
750 1 0.909091 0.454545 0.727273
758 1 0.727273 0.545455 0.727273
759 1 0.818182 0.545455 0.727273
760 1 0.909091 0.545455 0.727273
768 1 0.727273 0.636364 0.727273
769 1 0.818182 0.636364 0.727273
770 1 0.909091 0.636364 0.727273
838 1 0.727273 0.363636 0.818182
839 1 0.818182 0.363636 0.818182
840 1 0.909091 0.363636 0.818182
848 1 0.727273 0.454545 0.818182
849 1 0.818182 0.454545 0.818182
850 1 0.909091 0.454545 0.818182
858 1 0.727273 0.545455 0.818182
859 1 0.818182 0.545455 0.818182
860 1 0.909091 0.545455 0.818182
868 1 0.727273 0.636364 0.818182