LAMMPS (29 Sep 2021 - Update 2)
OMP_NUM_THREADS environment is not set. Defaulting to 1 thread. (src/comm.cpp:98)
  using 1 OpenMP thread(s) per MPI task
dimension 3
units lj
boundary p p p
atom_style atomic

lattice sc 1
Lattice spacing in x,y,z = 1.0000000 1.0000000 1.0000000
region box block -5 5 -5 5 -5 5
create_box 1 box
Created orthogonal box = (-5.0000000 -5.0000000 -5.0000000) to (5.0000000 5.0000000 5.0000000)
  1 by 1 by 1 MPI processor grid
create_atoms 1 box
Created 1000 atoms
  using lattice units in orthogonal box = (-5.0000000 -5.0000000 -5.0000000) to (5.0000000 5.0000000 5.0000000)
  create_atoms CPU = 0.001 seconds
group re region box
1000 atoms in group re
change_box all x delta -0.5 0.5 y delta -0.5 0.5 z delta -0.5 0.5
Changing box ...
  orthogonal box = (-5.5000000 -5.0000000 -5.0000000) to (5.5000000 5.0000000 5.0000000)
  orthogonal box = (-5.5000000 -5.5000000 -5.0000000) to (5.5000000 5.5000000 5.0000000)
  orthogonal box = (-5.5000000 -5.5000000 -5.5000000) to (5.5000000 5.5000000 5.5000000)
displace_atoms re move 0.5 0.5 0.5
Displacing atoms ...
mass 1 1.0

pair_style lj/cut 5.5
pair_coeff * * 1.0 1.0

timestep 0.001

velocity all create 0.1 80000

fix 1_ all nve

dump out_1 all atom 1 lammps_Ovito

thermo 1

run 100
Neighbor list info ...
  update every 1 steps, delay 10 steps, check yes
  max neighbors/atom: 2000, page size: 100000
  master list distance cutoff = 5.8
  ghost atom cutoff = 5.8
  binsize = 2.9, bins = 4 4 4
  1 neighbor lists, perpetual/occasional/extra = 1 0 0
  (1) pair lj/cut, perpetual
      attributes: half, newton on
      pair build: half/bin/atomonly/newton
      stencil: half/bin/3d
      bin: standard
Per MPI rank memory allocation (min/avg/max) = 5.571 | 5.571 | 5.571 Mbytes
Step Temp E_pair E_mol TotEng Press 
       0          0.1   -3.4629621            0   -3.3131121    11.589575 
       1  0.099932151   -3.4628604            0   -3.3131121    11.589914 
       2  0.099865065   -3.4627598            0    -3.313112    11.589842 
       3  0.099799882   -3.4626619            0   -3.3131118    11.589353 
       4  0.099738247   -3.4625694            0   -3.3131116    11.588441 
       5  0.099682296   -3.4624853            0   -3.3131113    11.587095 
       6  0.099634644   -3.4624136            0   -3.3131111    11.585305 
       7  0.099598365   -3.4623589            0   -3.3131107    11.583057 
       8  0.099576974   -3.4623264            0   -3.3131103    11.580337 
       9  0.099574408   -3.4623222            0   -3.3131099    11.577128 
      10  0.099594992   -3.4623526            0   -3.3131095    11.573412 
      11  0.099643418   -3.4624247            0    -3.313109    11.569169 
      12  0.099724715    -3.462546            0   -3.3131085    11.564379 
      13  0.099844211   -3.4627245            0    -3.313108    11.559018 
      14    0.1000075   -3.4629687            0   -3.3131074    11.553064 
      15   0.10022042   -3.4632872            0   -3.3131068    11.546492 
      16   0.10048899    -3.463689            0   -3.3131063    11.539279 
      17   0.10081937   -3.4641831            0   -3.3131052    11.531398 
      18   0.10121786    -3.464778            0    -3.313103    11.522826 
      19   0.10169082   -3.4654839            0   -3.3131003    11.513537 
      20   0.10224462   -3.4663087            0   -3.3130952    11.503506 
      21   0.10288564   -3.4672642            0   -3.3130901    11.492704 
      22   0.10362017    -3.468358            0   -3.3130831    11.481111 
      23   0.10445443   -3.4695974            0   -3.3130724    11.468703 
      24   0.10539446    -3.470997            0   -3.3130634     11.45545 
      25   0.10644613   -3.4725616            0   -3.3130521    11.441334 
      26   0.10761505   -3.4743002            0    -3.313039    11.426333 
      27   0.10890659   -3.4762212            0   -3.3130247    11.410427 
      28   0.11032577   -3.4783338            0   -3.3130106    11.393594 
      29   0.11187728   -3.4806452            0   -3.3129971    11.375818 
      30   0.11356541   -3.4831561            0   -3.3129783    11.357092 
      31   0.11539404   -3.4858802            0   -3.3129623    11.337392 
      32   0.11736658   -3.4888199            0   -3.3129461     11.31671 
      33   0.11948597   -3.4919807            0   -3.3129309    11.295037 
      34   0.12175462   -3.4953659            0   -3.3129166    11.272366 
      35   0.12417445   -3.4989751            0   -3.3128997      11.2487 
      36    0.1267468   -3.5028156            0   -3.3128856    11.224029 
      37   0.12947245   -3.5068854            0   -3.3128709     11.19836 
      38   0.13235162   -3.5111811            0   -3.3128522    11.171701 
      39   0.13538394   -3.5157086            0   -3.3128358    11.144051 
      40   0.13856846   -3.5204648            0     -3.31282    11.115421 
      41   0.14190365   -3.5254492            0   -3.3128066    11.085821 
      42   0.14538738   -3.5306531            0   -3.3127901    11.055274 
      43   0.14901698   -3.5360774            0   -3.3127755     11.02379 
      44    0.1527892   -3.5417174            0   -3.3127628    10.991388 
      45   0.15670027   -3.5475628            0   -3.3127474    10.958099 
      46   0.16074589   -3.5536102            0   -3.3127325    10.923941 
      47   0.16492125   -3.5598496            0   -3.3127151    10.888948 
      48    0.1692211   -3.5662788            0    -3.312701    10.853138 
      49   0.17363973    -3.572887            0   -3.3126878    10.816547 
      50   0.17817103   -3.5796638            0   -3.3126745    10.779209 
      51   0.18280853   -3.5866013            0   -3.3126627    10.741157 
      52   0.18754541   -3.5936877            0   -3.3126509    10.702428 
      53   0.19237457   -3.6009096            0   -3.3126363    10.663064 
      54   0.19728868   -3.6082607            0   -3.3126237    10.623097 
      55   0.20228016   -3.6157279            0   -3.3126111    10.582569 
      56   0.20734131   -3.6233019            0   -3.3126009    10.541517 
      57   0.21246428   -3.6309649            0   -3.3125872    10.499989 
      58   0.21764117   -3.6387103            0    -3.312575    10.458019 
      59   0.22286403   -3.6465257            0   -3.3125639    10.415649 
      60   0.22812496   -3.6543966            0   -3.3125513    10.372924 
      61   0.23341608   -3.6623146            0   -3.3125406    10.329878 
      62   0.23872965   -3.6702652            0   -3.3125288    10.286557 
      63   0.24405804   -3.6782372            0   -3.3125162    10.242999 
      64   0.24939384   -3.6862215            0   -3.3125049     10.19924 
      65   0.25472984   -3.6942057            0    -3.312493    10.155319 
      66   0.26005909   -3.7021783            0   -3.3124798    10.111274 
      67   0.26537494   -3.7101324            0    -3.312468    10.067136 
      68   0.27067108   -3.7180554            0   -3.3124548    10.022941 
      69   0.27594152     -3.72594            0   -3.3124416    9.9787202 
      70   0.28118069   -3.7337792            0   -3.3124299    9.9344997 
      71    0.2863834   -3.7415637            0   -3.3124182    9.8903099 
      72   0.29154488   -3.7492851            0   -3.3124051    9.8461786 
      73   0.29666084    -3.756939            0   -3.3123927    9.8021264 
      74    0.3017274   -3.7645189            0   -3.3123804    9.7581757 
      75    0.3067412   -3.7720223            0   -3.3123707     9.714342 
      76   0.31169932   -3.7794397            0   -3.3123583    9.6706503 
      77   0.31659935     -3.78677            0   -3.3123458    9.6271113 
      78   0.32143936   -3.7940127            0   -3.3123358    9.5837338 
      79   0.32621792   -3.8011593            0   -3.3123217    9.5405376 
      80   0.33093408   -3.8082173            0   -3.3123126    9.4975168 
      81   0.33558736   -3.8151781            0   -3.3123004    9.4546892 
      82   0.34017778   -3.8220452            0   -3.3122888    9.4120525 
      83   0.34470579   -3.8288194            0   -3.3122778    9.3696076 
      84   0.34917232   -3.8354995            0   -3.3122648    9.3273577 
      85   0.35357872   -3.8420903            0   -3.3122526    9.2852951 
      86   0.35792676   -3.8485956            0   -3.3122424    9.2434131 
      87   0.36221859   -3.8550152            0   -3.3122307    9.2017098 
      88   0.36645676   -3.8613548            0   -3.3122194    9.1601736 
      89   0.37064416   -3.8676155            0   -3.3122052    9.1187991 
      90   0.37478401   -3.8738016            0   -3.3121878    9.0775744 
      91   0.37887982   -3.8799262            0   -3.3121748    9.0364747 
      92   0.38293537   -3.8859895            0   -3.3121608    8.9954934 
      93    0.3869547   -3.8919994            0   -3.3121478    8.9546112 
      94   0.39094204   -3.8979588            0   -3.3121322    8.9138166 
      95   0.39490181   -3.9038797            0   -3.3121193    8.8730834 
      96   0.39883859   -3.9097647            0   -3.3121051    8.8323991 
      97   0.40275707   -3.9156206            0   -3.3120891    8.7917448 
      98   0.40666202   -3.9214561            0   -3.3120731    8.7510983 
      99   0.41055826   -3.9272797            0   -3.3120581    8.7104375 
     100   0.41445067   -3.9330981            0   -3.3120438    8.6697427 
Loop time of 1.60538 on 1 procs for 100 steps with 1000 atoms

Performance: 5381.892 tau/day, 62.290 timesteps/s
99.5% CPU use with 1 MPI tasks x 1 OpenMP threads

MPI task timing breakdown:
Section |  min time  |  avg time  |  max time  |%varavg| %total
---------------------------------------------------------------
Pair    | 1.3752     | 1.3752     | 1.3752     |   0.0 | 85.66
Neigh   | 0.014505   | 0.014505   | 0.014505   |   0.0 |  0.90
Comm    | 0.0074681  | 0.0074681  | 0.0074681  |   0.0 |  0.47
Output  | 0.20373    | 0.20373    | 0.20373    |   0.0 | 12.69
Modify  | 0.0022679  | 0.0022679  | 0.0022679  |   0.0 |  0.14
Other   |            | 0.002253   |            |       |  0.14

Nlocal:        1000.00 ave        1000 max        1000 min
Histogram: 1 0 0 0 0 0 0 0 0 0
Nghost:        7000.00 ave        7000 max        7000 min
Histogram: 1 0 0 0 0 0 0 0 0 0
Neighs:        305656.0 ave      305656 max      305656 min
Histogram: 1 0 0 0 0 0 0 0 0 0

Total # of neighbors = 305656
Ave neighs/atom = 305.65600
Neighbor list builds = 1
Dangerous builds = 0
write_dump all custom positions_lammps x y z modify format float %20.15g
write_dump all custom forces_lammps fx fy fz modify format float %20.15g
Total wall time: 0:00:01
