ITEM: TIMESTEP
100
ITEM: NUMBER OF ATOMS
1000
ITEM: BOX BOUNDS pp pp pp
-5.5000000000000000e+00 5.5000000000000000e+00
-5.5000000000000000e+00 5.5000000000000000e+00
-5.5000000000000000e+00 5.5000000000000000e+00
ITEM: ATOMS x y z
   -4.59114157136495    -4.60590032827744    -4.58313430165048
   -3.52913446489195    -4.58344112461145    -4.56872631714203
   -2.51949455424496    -4.58643382705216    -4.55477649437215
   -4.58026229271235    -3.50596981444629    -4.59898051991897
   -3.54144536279431    -3.53407689615449    -4.54845917459266
   -2.53527164877388    -3.50274169733925    -4.53924024588493
   -4.58899285363924    -2.48138186363161    -4.56909589795101
   -3.51329874713065    -2.52824552232454     -4.5860926577465
   -2.47895054751141    -2.47260077157351     -4.5931121391464
   -4.58187921471015    -4.61548975719867    -3.53159179167366
    -3.5138280007404    -4.57876189951427    -3.52385232586839
   -2.48309519260485    -4.60500252017157    -3.52284409472358
   -4.58083302700049    -3.56373936854384    -3.53574771873138
   -3.52381476568572    -3.49636529860639     -3.4954712910227
   -2.49528775171992    -3.53152190192402    -3.50551666100221
   -4.60966325497764    -2.54325539017935    -3.48846302823704
    -3.5613366247998    -2.46889252946584    -3.50518998843816
   -2.54729397769463    -2.49470512111754    -3.53053428515612
   -4.59980102500145    -4.57237928487258    -2.51886574058718
   -3.52203555858316    -4.54563205087539    -2.51115205771404
   -2.50154991821203    -4.60363198106215    -2.50942690603839
   -4.58980381235589    -3.50600948605356    -2.52069968723303
   -3.52959482689637    -3.48494578187345    -2.48773877100083
   -2.51185789237073    -3.53303594760975    -2.50822735605301
   -4.54264139169141    -2.49140277800296    -2.47007340279828
   -3.50202442188835    -2.49526051259398    -2.48250923278619
   -2.48453716356695     -2.4875391799995    -2.50026538350049
   -1.51752739871188      -4.618205442762     -4.5768189377457
  -0.529125376406035    -4.55753379802747    -4.54878438350711
   0.470262118345128    -4.53348157015697    -4.57132935097836
    1.48302818882419    -4.57170490390165    -4.55633517852465
   -1.51785485776229    -3.54674418137414    -4.59131063348294
   -0.48745381624729    -3.51741603090974    -4.57139916577518
   0.532211845171634    -3.49866649368489    -4.58342127417329
    1.52415727018596      -3.516539026769    -4.55452868641897
   -1.47861803050984    -2.52799293136456    -4.59192482686473
  -0.481736262540742    -2.51400717898121    -4.53184209743697
   0.492501773054277     -2.4938348874316    -4.57079612804526
    1.48811621725513    -2.50308038571887    -4.57156326988245
   -1.47393009958302    -4.54224841086472    -3.49730046063903
  -0.489073693039086    -4.59835092760069    -3.50096378670384
   0.500788640062743    -4.55076675840694    -3.51380092864006
    1.49200129968435    -4.59860667373513    -3.49130461912107
   -1.48073348476216    -3.48511741092483    -3.49408420679126
  -0.486101458498235    -3.51506706162097    -3.50434603146906
   0.518688485628366    -3.52010524599988    -3.53488506521685
    1.50025537348555    -3.51125427674378    -3.50054284364318
   -1.54405362299583    -2.48302932103129    -3.53517366889963
  -0.517495619321261    -2.48775473454967    -3.50758404393448
   0.509655008445749    -2.50116360430249    -3.52742722714213
    1.51419853626677    -2.49248228253645    -3.50489360868576
   -1.49205794311588    -4.57205420931226    -2.49020037100034
  -0.505610918470889    -4.60078557518955    -2.50084361467717
   0.495577797913599    -4.55845708788914    -2.50003726576585
    1.48634847585193    -4.56032564731375    -2.48267662897823
   -1.49594307192814    -3.51969456287506    -2.46697766737664
  -0.493559589773075    -3.54699053473719    -2.47801503580157
   0.505211530737741    -3.52178429758612     -2.5397169377277
    1.48731053006784    -3.50665827394622    -2.49663032390245
    -1.5067821239038    -2.50932793976452    -2.50409264664775
   -0.50682458776945    -2.52393409886476    -2.48557729543535
   0.483737853273619    -2.50918226427064    -2.53135585831899
    1.48281340459515    -2.50260600605246    -2.49370614622417
    2.49551745687294    -4.59152920895824    -4.54033752644142
    3.52572547522485    -4.59103819027961    -4.61255788660148
    4.57998461175143    -4.54497720141639     -4.5882142086824
    2.50976460276273    -3.51524166564806    -4.58324023937565
     3.5144775666971    -3.52989155648016    -4.56085911703056
    4.56542264988483    -3.49201074867778     -4.6015674335383
     2.4945207148333    -2.48179630066403    -4.59454480582337
      3.535491621631    -2.51824014490381    -4.54016118080309
    4.62340377641346    -2.48474768809196    -4.56804947638963
    2.50133788126426    -4.54306476484524    -3.49642514443494
    3.53406750633839    -4.54509971107143    -3.53321403543718
    4.58672658871556    -4.55303715707782    -3.52305945114987
    2.50002926171285    -3.48585948361574    -3.54749557946543
    3.50465925480776    -3.51222491716966    -3.49411131752676
    4.55258214519599    -3.50889473693838    -3.54048950230759
     2.5026487635114    -2.47040420276384     -3.5346658770498
    3.49910694580071    -2.51081339498489     -3.4911628585519
    4.54673820541757    -2.50485717784559    -3.51353920207772
    2.49996349173434    -4.54548608098074    -2.48951151401853
    3.49665036555133     -4.6213858549562    -2.50155603218356
    4.55188553319568    -4.58256841405619    -2.49920101263924
    2.48354627846981    -3.48439744993061    -2.53681671543651
    3.49837890676179    -3.55629087471078    -2.50115873248595
    4.56373816579998    -3.50223752228085    -2.50240397681506
     2.4975615215338    -2.48228622562077     -2.5174115803602
    3.49492750121431    -2.52617749379755    -2.49056774488464
    4.53614034601004    -2.48123810951714    -2.52007356391149
     -4.549835049697     -1.4937535013156     -4.6183714467166
   -3.49961165786446    -1.53046770442994    -4.57568202123264
   -2.48104000482877    -1.46994330868875    -4.57586699518536
   -4.59610984315773   -0.502032557417877    -4.51722863608659
   -3.52135927524932   -0.515838418549712     -4.5477004681325
   -2.50823481714666   -0.479256099559732    -4.53459530621028
   -4.57512284287071    0.470356820515651    -4.56523583281944
   -3.49743996025623    0.500311054432897    -4.58432845174981
   -2.47592726211411    0.523513346098611    -4.56682213318329
   -4.52494791477341     1.47403870809761    -4.55466019280834
   -3.48767249669784     1.50293571928334    -4.51400373097131
   -2.47536315812044     1.51349350732781    -4.60086170540435
   -4.57945716957539    -1.53103983761458     -3.5542585622529
   -3.51342739990042    -1.47564911781696     -3.5369797497037
   -2.51096661497059    -1.48546052618083     -3.5175287202179
   -4.60716074498826   -0.511295290766528    -3.47169496991318
   -3.55094272540442   -0.466787353259293    -3.49737925947478
   -2.54178924131932   -0.501065221916121    -3.48483825471073
   -4.54809925940389    0.501414774733348    -3.51461270823587
   -3.51231505472486    0.519979394635357    -3.52810997427505
    -2.5000533746593    0.488809055057947    -3.53158282531262
   -4.54675182498051     1.51259974420294    -3.49219940877843
   -3.51039349969668     1.53245548167658    -3.47920613134857
   -2.52319523145285     1.48394935069947    -3.50895947538639
    -4.5639791151533    -1.48083221443942    -2.51907633648054
   -3.49471922071926    -1.50590136370501    -2.52203625111522
   -2.47541436061829    -1.45431199447112    -2.49943119871243
   -4.60169073594889   -0.484378518031521    -2.47755875564413
   -3.55467188937279   -0.536073196980981    -2.50352678700774
   -2.54488061703801   -0.445095674637817    -2.47472173682743
     -4.593653122319    0.497349373874147    -2.49631426846695
   -3.52499415514376    0.461789714047537    -2.49720484655835
   -2.49146092183177    0.544261914448943    -2.51223680801874
   -4.59867457599319      1.4904021152616    -2.48338312432981
   -3.54164947054643     1.47523257082538    -2.48692452200205
   -2.51859540293904     1.53237261619206    -2.47497907816833
   -1.47932989574938    -1.51883638002828    -4.56307167353593
  -0.481135963430118    -1.51072227146423    -4.54805916352057
   0.534065864348832    -1.50567775667804    -4.57395969957551
    1.51905861797562    -1.52611710997833    -4.53038663834506
   -1.49411707835798   -0.516608414652335    -4.52992737519739
  -0.512720532423106   -0.519228514545407    -4.59598395272547
   0.509447604906742   -0.499972871460715    -4.56124919255017
    1.50921326726702   -0.531875823110103    -4.53969629958198
   -1.48269023427302    0.498645192154119    -4.58220807604475
  -0.475219704271885    0.503330261555221    -4.60811353373844
   0.525381622905585    0.495814473916178    -4.55644793626611
    1.53266810197639    0.474394350015745    -4.62288155513122
   -1.48791519294658      1.5060346741982    -4.58722779808538
   -0.48605656066366      1.5027881405397    -4.56229399970292
   0.503733404945045     1.49816448381883    -4.60754274312624
    1.50411935288422     1.49621319124227    -4.55275189371733
     -1.504064896294    -1.49206815798343    -3.51101326710783
  -0.530280402060024    -1.48491555815825    -3.52462644340954
   0.467021720622601    -1.51088130561186    -3.48860747519163
     1.4844525487755    -1.49602297447042    -3.50274690654357
   -1.53554302130397   -0.493738921112841    -3.47761001189047
  -0.532120236800823   -0.496851997653595    -3.52737341129391
   0.469436421845789   -0.497046862911661    -3.52438171182543
    1.48604984183199   -0.488922876475017    -3.50320717385663
   -1.48689223240082    0.499862594260686    -3.54144669997262
  -0.488811875805441    0.492936498344606     -3.5473870675374
   0.519973051835265    0.506858984564155    -3.50293770050167
    1.51920951432475    0.519597363730541    -3.55127262375218
   -1.52582700459246     1.51653993773203    -3.53452702698768
   -0.52908437015944     1.48642632911913     -3.5173016198397
   0.471948427218852     1.50113639086177    -3.52648646476614
    1.47951935336429     1.53368699192564    -3.50065746422768
   -1.50060062524135    -1.50905414207475    -2.48625756546822
  -0.510356568796344    -1.51899710326491    -2.51321634858049
   0.460664325706612    -1.52601102905184     -2.4619749353575
     1.4510605023753    -1.49945687469813    -2.49741141420338
   -1.55350470016103   -0.518271009288606    -2.47245830138624
  -0.548461742858024   -0.513938780040459    -2.50049946219018
   0.466973289074564   -0.526950734751683    -2.51051370133237
    1.47079625592488   -0.502482537994592    -2.48084616174771
   -1.47365834384888    0.483538637906014    -2.52935617968021
  -0.485137898467657    0.484903043089987    -2.53153745786131
   0.523820945938973    0.483164477572832    -2.48518600611978
    1.51362563402188    0.486977527623893    -2.51384157332816
   -1.51300281249449     1.46710344211093    -2.51072593117903
  -0.509049819275301     1.48141192930478    -2.50697032162399
   0.482565354504065     1.48198477088041    -2.48770764514072
    1.47893654267073     1.50447430765568    -2.48213287504613
    2.52904587242621    -1.48032078945162    -4.53007555297754
    3.51824381934489    -1.52157608256132     -4.5686356516301
    4.56401413848813    -1.50264068338081    -4.58703111376125
    2.52013609305516   -0.468789751077329    -4.61166710021293
    3.54194017163943   -0.533452569636249    -4.55883080738608
    4.60941811600845   -0.503513590451211    -4.62029766308538
    2.51550391433299     0.53278684156379    -4.51207275532546
    3.53064132193704    0.473774025500777    -4.55930086464102
    4.58319424015757    0.490771094809213    -4.56133346604854
     2.5064903077534     1.53687416090787    -4.59852657556976
    3.53065788865191     1.49377711862505    -4.60687522320152
    4.59812467312727     1.50223116347504    -4.59072464075348
    2.51505783607877    -1.47420271700774    -3.48224281881153
    3.55613203363971    -1.51014277205374    -3.51349953572055
    4.62064130595471     -1.5067274009557    -3.49898741639269
     2.4671728136017   -0.492949359849033    -3.55290446075522
    3.48516130104184   -0.505136091397929    -3.50279407726447
     4.5164500385129   -0.510147734493932    -3.56613203620528
    2.52792403753339    0.483360617719945    -3.47528053231004
    3.53194349644099    0.493318183916096    -3.50352158371571
     4.5614482006654    0.482080071095777    -3.49193748390057
    2.49435232524283     1.47936832249754    -3.52262932861104
    3.52806114325637     1.50309624232573    -3.52899022779219
    4.59483975995405     1.48343940757799     -3.5165601843141
     2.4609684517194    -1.49130632250857    -2.47814952074986
     3.4847103696682    -1.50226667297967    -2.50245614491682
    4.54971781802276    -1.47211067642044    -2.47382058315011
    2.47650896533256   -0.493009291157461    -2.52183928246273
    3.49366368825309   -0.484432858823472    -2.49021519225502
    4.57151476643896   -0.484966315025321    -2.55267909674117
    2.52994014562088    0.512982907057526    -2.46771489790311
    3.53426146708742    0.529412551043983     -2.4948906624447
    4.57687273269078    0.514487574624237    -2.47507762552138
    2.48425206463545     1.51798328619521    -2.49586136486337
    3.50588329843937     1.53360769338743    -2.50487650591555
    4.57596340920127      1.5127316265338    -2.48970610365856
   -4.57837579913244     2.46382090176014    -4.60840613839589
   -3.50904948824045     2.50608421393628    -4.57291534809048
   -2.48832140208046     2.51033578877519     -4.5807065338451
   -4.57390943364291     3.49179487016476    -4.58934249361782
   -3.51966976718407     3.51395141622184    -4.57728394444253
   -2.51013733622965       3.518653053572    -4.59701164440175
    -4.5761393637851     4.57209831809219    -4.61310350846299
    -3.5277312221962     4.58069884647249    -4.57568107563917
   -2.51406141480809     4.55177832887882    -4.55686423179134
   -4.55473194850445     2.51869283948121    -3.52874059295591
   -3.50103891783406     2.51274374603733    -3.50576670055507
    -2.4874376776249     2.47872788862493     -3.5084781603307
   -4.53955788364759     3.52023639454468     -3.5430437808324
   -3.48224195828919     3.52866845994667    -3.52499538784932
   -2.46475701755982     3.49596481984988    -3.52475671900624
   -4.60912327362277     4.56482017814999    -3.54288081724035
   -3.53283870380371     4.56073960674533     -3.5252520553599
   -2.51122327735373     4.52813196667488    -3.51649688599398
   -4.59831151227742     2.49075559984336    -2.49759199885605
   -3.53664978468307     2.47337126701148    -2.49708888882446
   -2.50834849763719     2.52096996926165    -2.49691818333861
   -4.60404091497106     3.50521027042838    -2.53527258550437
   -3.54172007210031     3.50506294139914    -2.51536094824577
    -2.5091111748166     3.53804338163917    -2.49427293160205
   -4.53792540133802      4.5734668757061    -2.52348740767207
   -3.50055629570657     4.55359462757453    -2.51616112095663
   -2.50126638392197     4.61001368197779    -2.50472173833023
   -1.48481895835493     2.51859409692504    -4.50383175520917
   -0.49422374982405     2.52806009546303    -4.56308623062823
    0.50589870074186     2.49254637320572    -4.53673865245127
    1.50056277976522     2.51502408746202    -4.57162042587719
   -1.52179997374394     3.51949462258052    -4.59348923680415
  -0.513077724940762     3.54581893420671    -4.59959284787375
   0.516343770157775     3.50660418689762    -4.51964348344023
    1.52951261892323     3.52661366733798    -4.53821198884369
   -1.49937435234082     4.57024788010917    -4.60330909164062
   -0.50298049251908     4.61457816473066    -4.60160753797041
   0.514341377545022     4.56484005599698    -4.57492070616826
    1.50501960747796     4.57381027615481    -4.59259015529145
   -1.48899152347616     2.51996838286594     -3.4642307583002
  -0.499601735398945     2.48746383535819    -3.52679396464227
   0.493445651188351     2.50146820784604    -3.50407594566145
    1.48451497642493     2.51297222509624    -3.53050593223404
   -1.46699847806489      3.5353334903936    -3.55618455060069
  -0.474633549297793     3.52058751133117    -3.52184413969775
   0.512804059453186     3.50523576538448    -3.47023301080927
    1.50024307317883      3.5121878084957    -3.48569206338557
   -1.52005459109069     4.58615944103353    -3.53453688571401
  -0.527335335323082     4.59962880461814    -3.53294853983388
   0.476372691766369     4.55844194801969     -3.5317164034905
     1.4815964074768     4.53303937170653    -3.52958770210205
   -1.51583702778976     2.46089344720326    -2.47190143231926
  -0.496297484965685     2.48914764077374     -2.5306161194189
     0.5225011489665     2.49407053784437    -2.51090042213034
    1.52842496395974     2.50466718791717    -2.52857595478481
    -1.5091635553839      3.4753239166393    -2.54805063756216
  -0.485227624169602     3.51166797017639    -2.47909441704287
   0.513940338990524     3.50076496120571    -2.46214852202071
    1.51875218118859     3.51506509798657    -2.47532201226176
   -1.50234072966751     4.53606437218617    -2.51099006642187
  -0.517693919769277     4.60066639231291    -2.51337759688081
     0.4928521972133     4.54906900998691    -2.52180642098647
    1.49540170771849     4.55191561429814    -2.51099929501858
    2.51115740472758     2.53984985269497    -4.57547150808851
    3.54261536118163      2.5192742057685    -4.54917720535533
    4.61426251546196     2.52248911358846    -4.55340283948592
    2.52414487962608     3.56345185010492    -4.61448446711887
    3.53331798706472     3.55881788536108    -4.59779661057622
    4.59237997352116     3.53900392219455    -4.55022582690687
    2.52385994843631     4.62572294754458    -4.57003493096693
    3.53313343569722     4.62324095798702    -4.54773478144752
    4.59094260033278     4.59877088789439    -4.59216151726531
    2.48056112310004     2.48064045937494    -3.51877062264214
    3.50530073639779      2.5041284934853    -3.49983823364434
    4.58753509439376     2.47979868453237    -3.51548120505457
    2.49102726679248     3.50639174307449    -3.53761303426249
     3.4942569555972     3.51055330105607    -3.54947654372005
    4.54144685672629     3.51001956999721    -3.49499118757427
    2.50607278173187     4.55944222999821    -3.51669819364832
    3.53773959658863     4.55401318397881    -3.48874474429099
     4.6094609602516     4.59597006401354    -3.52062594117093
    2.51555338624275     2.51930302804051    -2.51746228185436
    3.52868519047912     2.53904631928027    -2.50414682655243
    4.57823761228052      2.5167668569485    -2.50253833007125
     2.5127261420577     3.52860407652808    -2.51688895576388
    3.50717298686408     3.54244064346032    -2.53295960963049
    4.54376352067059     3.51616073746073    -2.49245241924267
    2.51466856362112      4.5875878372337    -2.49183790818646
    3.55023051559899     4.59067692874172    -2.46901003790227
    4.60697637904627     4.56156420304994    -2.49248754057626
   -4.60318502366475    -4.55904579035501    -1.52054956954678
   -3.52651201425331    -4.60869413381084    -1.51091062440765
   -2.48864644626489    -4.52435648365114    -1.52586359019355
   -4.54710024397897    -3.51499563152792    -1.51520364447806
   -3.50787727915645    -3.52510527283422    -1.49260679259879
   -2.51327602591284    -3.50220668706228    -1.51620036080643
   -4.55478325261727    -2.50923278683003    -1.46558607362994
   -3.50972743770833    -2.49042713638891    -1.47697766961084
   -2.50939137169039      -2.505053249174     -1.5091839949903
   -4.57296702830281    -4.58938026209317   -0.521856502074355
   -3.52046793295405    -4.58079691107355   -0.514699677434632
   -2.51233554005754     -4.6168060507627   -0.508902386220583
   -4.55117500723112     -3.5262915405471   -0.506414908943781
   -3.49827824137464     -3.5006991047174   -0.487142914660018
   -2.48067056446278    -3.55436239933882   -0.523371806681498
   -4.57355490330345    -2.51658211881712   -0.471977772433794
   -3.51548478973344    -2.47778006932074   -0.474672654013136
   -2.50018828412357    -2.52161180772756   -0.495126573876211
   -4.57499765302955    -4.58417497321685    0.479800206966076
   -3.51734539515248    -4.56083301749645    0.496631423816517
   -2.50731759957914    -4.61310684491204    0.496841128073694
   -4.58780266450214    -3.54101630869383    0.490700934564467
   -3.53090495336671    -3.51163288180015    0.511426603630961
   -2.50250578686745     -3.5423097579668    0.476132277186664
   -4.56246954835911     -2.5156977972369    0.521357038999864
   -3.50019292117812    -2.48322297242684    0.517754818003019
   -2.48681515454024     -2.5211275733876    0.485096355238528
   -4.55816646868835     -4.5812957838566     1.49888546798589
   -3.49857061855815    -4.55211074160863     1.49735243378852
   -2.47016863494789    -4.55294096485324     1.51973153432533
   -4.60968383994087    -3.54009509226079      1.4979815777219
   -3.52948448652598     -3.4870241362354     1.52056372933237
   -2.49185637730197    -3.50652348859893     1.47925110282093
   -4.59968139497224    -2.52674657353975     1.52590380869909
   -3.52830110189144    -2.48416650169419     1.51972430536088
   -2.50320031896415    -2.50299657714919     1.48654084253077
   -1.49485073775765    -4.59145416526747    -1.50387849623483
  -0.484106772939416    -4.57840301183817    -1.49248794218873
   0.499673007802307    -4.52488552893118    -1.49615035406132
    1.50448304729932    -4.57014431200682    -1.48559406476295
   -1.50014456575245    -3.49954703507253    -1.45731657495001
  -0.497211320855994    -3.52176146974463    -1.47625690639968
    0.52538484030443    -3.49585472779236    -1.53812263005141
    1.52689516298941    -3.53240360424145    -1.49632712482841
   -1.49808653555813    -2.48088806500794    -1.48636315288036
  -0.494643709685092    -2.49473683136579    -1.48894730998746
   0.514896444537853    -2.49170663823388    -1.50932984596184
    1.49304644679467     -2.5223143569545    -1.49302558356589
   -1.49519057707849     -4.5938674915406   -0.526502937034679
  -0.500383668423245    -4.59016621105867    -0.48638111211649
   0.501794458487122    -4.59276226438247     -0.4987721946511
    1.50221976515129    -4.54022193625706   -0.486711294606331
   -1.48100666132313    -3.53547782376265   -0.461350516405201
  -0.492821749651714    -3.53912082275888   -0.486260787812661
   0.489107406604799    -3.53940448412835   -0.545597864097494
    1.47643388621638    -3.49960444022285   -0.513673559085893
   -1.49132507389566    -2.50570334176949   -0.476275899022063
  -0.494306467784616    -2.53269612591737   -0.474397939149401
   0.491112699649883     -2.5228260666332   -0.491107672121515
    1.48559935238071    -2.47634634009532   -0.510716075415929
   -1.50518432038067    -4.59009320790362    0.462555731625237
  -0.506007687648871    -4.54222904774055    0.518583276690969
   0.486819635809537      -4.581407278347    0.500911968295062
     1.4944747078999     -4.6092295325993    0.492569292932272
   -1.48165400727627    -3.53049162978517    0.534462911452605
  -0.466571559791778    -3.51141059657114    0.493819605734433
   0.527409825546447    -3.53770308420061    0.463271690772547
    1.53228049792549    -3.53682740195348    0.482850280549055
    -1.4855343589573    -2.51762990078045    0.518529316326132
  -0.477718719439512    -2.49697087455941    0.512994595095122
   0.516003950682555    -2.54088345763573    0.534213931269732
     1.5113338893097    -2.51892227135892    0.483543966545454
   -1.46951186293546    -4.55732218002483     1.47405034692577
  -0.473812541665689    -4.54071806516352     1.49977209513063
   0.516885516705402    -4.57321728262086      1.5124009137281
    1.49286861647399    -4.53487086210574     1.49669983842179
   -1.47763707686591    -3.50561697917954     1.51982876638223
  -0.485067664184462    -3.51091710258306     1.48678806142942
   0.500744549833361    -3.51888393573929     1.48787246687457
    1.47723080023837    -3.51336262953281     1.47135639276568
   -1.50101524553988    -2.47798358444678     1.50925135935838
  -0.511536736764991    -2.49181601104614     1.51285946849462
    0.46897182053754    -2.51764167212083      1.5314225377047
    1.46483653835575    -2.51221459773957     1.47963205860134
    2.49888545803597    -4.58958353092882    -1.50844963441831
    3.51923811578282    -4.53518814178331    -1.47854024898343
     4.5728081465215    -4.59241063366261    -1.49714495024417
    2.53436537354616    -3.51913184952164    -1.52060442625484
    3.53190924713713    -3.49164868639356    -1.51277610673285
    4.56672642333658    -3.52906585216671    -1.48842594741708
    2.48648309421401    -2.49927496528324    -1.49418190446911
    3.48359558497018    -2.49172574936167    -1.47050002573388
    4.54619677545607    -2.50475996141901    -1.50111091005031
     2.5008531240389    -4.52614087009105   -0.508447017522104
    3.54035584424746    -4.59117893797163    -0.49382660473816
    4.60442225297776    -4.60900312661708   -0.503040601563591
    2.48293173491043    -3.49295634805116   -0.518899293821266
    3.52059441917278    -3.53952155960302   -0.541181404049581
    4.60060577433253    -3.52429359808164   -0.474572268185773
    2.47400263946449    -2.49827043923712     -0.4953097550731
    3.48324215872171    -2.53982430472763   -0.472593627141335
    4.52308119921965    -2.49745970256272   -0.504954576035744
    2.49755077725929    -4.58963439656801    0.480327871768658
    3.51603707135237    -4.57630355202356    0.516677482235845
    4.56652667253578     -4.5492698421443    0.489300870986514
    2.53123530983967    -3.50010612421404    0.501156150997589
    3.54054870416468    -3.51415502117409    0.461237649965535
     4.5823294735661    -3.49574627292147    0.518400222253428
    2.49617589491808    -2.47199683058082    0.493543928752485
    3.48851090261684    -2.50177857367466    0.518686068632847
    4.53170614920028    -2.50114106482161    0.497756932642322
    2.49438662475061    -4.54497748256459     1.49453818349864
     3.5009787936172    -4.60525227050577     1.49047115331335
    4.55930954489073    -4.61535007103377     1.47804800075162
    2.47254720496471    -3.48794955457194     1.50375729659572
    3.47470652384517    -3.52319475471449     1.47217872431338
    4.52552160232651    -3.53821621873732     1.51627813513745
    2.47202179907571    -2.48459189018299     1.49490689161362
    3.49181334545163    -2.49125900824943     1.49830648055773
    4.55872556458516    -2.49516795494701     1.52200317610783
   -4.57126969649358    -1.51114752624186     -1.4966172081457
   -3.51997961902707    -1.46846370122812    -1.51194541061778
   -2.51321988670235    -1.51111486751835    -1.49528096928281
   -4.54867857150919   -0.498119220360476    -1.49212157982714
   -3.50748357996905   -0.471794984436751    -1.51716131669136
   -2.50141033120572    -0.51257025501825    -1.48387968931583
   -4.59712741889834    0.531900279858099    -1.51042703200893
   -3.52483268419318    0.527683026378107    -1.47967905039894
   -2.51550568388664    0.503327873511436    -1.49206022928984
    -4.5721246369136     1.54342532657053    -1.48090061630552
   -3.53509130842233     1.51565635715003    -1.51032175412832
   -2.52140192184614     1.50508337999098    -1.47407984311151
   -4.57244715711148    -1.50702333202945   -0.486940984768938
   -3.51995676446459    -1.47233132294085   -0.497797225357273
   -2.49899680723489    -1.49607209156921   -0.496515087479144
   -4.53263088757355   -0.525157158482536   -0.494723031905255
    -3.5019557840077   -0.477553814116253   -0.518527355357977
   -2.49398435798271   -0.487062219016276   -0.506609623131808
   -4.60260545318612     0.47561582675732   -0.510014913759185
   -3.55433608657752    0.511439860489784   -0.476811127607489
   -2.52744185538133    0.499826834880433   -0.487848683621999
   -4.54245186115376      1.4630527257833   -0.508796589424573
   -3.48096518090883     1.51493837112326   -0.532046518590028
   -2.46888318550582     1.50368324528604   -0.487492954165712
   -4.56540412700724    -1.50404761744795    0.515508386140663
    -3.4971621402524    -1.48320707377085      0.5106719818384
   -2.49186769980091    -1.49626924457542     0.50470310887472
   -4.58079756261099   -0.503778752375268    0.502290739460499
   -3.52689491680662   -0.488359747039696      0.5028751727585
   -2.50538481113547   -0.484025429789752    0.492869851159639
   -4.58509546688411    0.497911079721547    0.496976208009107
   -3.51328453729491    0.507688840692466     0.49572329979369
   -2.49101127159645    0.535900839390973    0.512389930608735
   -4.55782781737549     1.49319370080063    0.490500734669259
   -3.51609594107616     1.50438367557745    0.462259530036084
   -2.51816944143752     1.52547366248007    0.508990614554117
   -4.52628392176619    -1.52446539447555     1.51860702507515
   -3.48402545109561    -1.49315685924915     1.52025843881964
   -2.49157854636973    -1.49165369344421     1.51275804317001
   -4.61372887267478    -0.52480615214684     1.52666900449078
   -3.53772375481236   -0.512628395996526     1.52276269887494
    -2.4950096782508   -0.495061332574514     1.46931417623906
   -4.60831719011458    0.496162054325284     1.49629822810654
   -3.54349713904081    0.484439927946332     1.47982231636446
   -2.52084537746479    0.504252184501289     1.49868321365414
   -4.54596591519279     1.49303500875481     1.48535695410788
   -3.49775371406608     1.48700774376637     1.46977836102209
   -2.49137727252512     1.49217157465543      1.4929511431998
   -1.50237956281643    -1.47455500939668    -1.50965822249243
  -0.509403012568012    -1.48722886132991    -1.51450871088394
    0.49763996878889    -1.50849177069396    -1.46986295931916
    1.50561527054522    -1.53136726515244     -1.4985000094371